chemcompute.org
{'UTCtimestamp': '2022-10-30T03:38:40.467092', 'cluster': 'jetstream2', 'clusterJobNumber': '141167', 'status': 'RUNNING', 'nodeList': 'chemcompute-node-0'}
----- GAMESS execution script 'rungms' -----
This job is running on host chemcompute-node-0.novalocal
under operating system Linux at Sun Oct 30 03:38:44 UTC 2022
SLURM has assigned the following compute nodes to this run:
Available scratch disk space (Kbyte units) at beginning of the job is
Filesystem     1K-blocks     Used Available Use% Mounted on
/dev/sda1       62903276 11482516  51420760  19% /
GAMESS temporary binary files will be written to /scratch/141167
GAMESS supplementary output files will be written to /data/slurm/48/483207
Copying input file 483207.inp to your run's scratch directory...
The generated host list is
chemcompute-node-0.novalocal

 Distributed Data Interface kickoff program.
 Initiating 1 compute processes on 1 nodes to run the following command:
 /data/gamess-2019R1-avx2-ddi/gamess.00.x 483207 

          ******************************************************
          *         GAMESS VERSION = 30 JUN 2019 (R1)          *
          *             FROM IOWA STATE UNIVERSITY             *
          * M.W.SCHMIDT, K.K.BALDRIDGE, J.A.BOATZ, S.T.ELBERT, *
          *   M.S.GORDON, J.H.JENSEN, S.KOSEKI, N.MATSUNAGA,   *
          *          K.A.NGUYEN, S.J.SU, T.L.WINDUS,           *
          *       TOGETHER WITH M.DUPUIS, J.A.MONTGOMERY       *
          *         J.COMPUT.CHEM.  14, 1347-1363(1993)        *
          **************** 64 BIT INTEL VERSION ****************

  SINCE 1993, STUDENTS AND POSTDOCS WORKING AT IOWA STATE UNIVERSITY
  AND ALSO IN THEIR VARIOUS JOBS AFTER LEAVING ISU HAVE MADE IMPORTANT
  CONTRIBUTIONS TO THE CODE:
     IVANA ADAMOVIC, CHRISTINE AIKENS, YURI ALEXEEV, POOJA ARORA,
     ANDREY ASADCHEV, ROB BELL, PRADIPTA BANDYOPADHYAY, JONATHAN BENTZ,
     COLLEEN BERTONI, BRETT BODE, KURT BRORSEN, CALEB CARLIN, GALINA CHABAN,
     WEI CHEN, CHEOL HO CHOI, PAUL DAY, ALBERT DEFUSCO, NUWAN DESILVA,
     TIM DUDLEY, DMITRI FEDOROV, ALEX FINDLATER, GRAHAM FLETCHER, 
     MARK FREITAG, KURT GLAESEMANN, ANASTASIA GUNINA,
     DAN KEMP, GRANT MERRILL, NORIYUKI MINEZAWA, JONATHAN MULLIN,
     TAKESHI NAGATA, SEAN NEDD, HEATHER NETZLOFF, BOSILJKA NJEGIC, RYAN OLSON,
     MIKE PAK, BUU PHAM,
     SPENCER PRUITT, LUKE ROSKOP, JIM SHOEMAKER, LYUDMILA SLIPCHENKO,
     TONY SMITH, SAROM SOK LEANG, JIE SONG, TETSUYA TAKETSUGU, SIMON WEBB,
     PENG XU, SOOHAENG YOO, FEDERICO ZAHARIEV

  ADDITIONAL CODE HAS BEEN PROVIDED BY COLLABORATORS IN OTHER GROUPS:
     IOWA STATE UNIVERSITY:
          JOE IVANIC, AARON WEST, LAIMUTIS BYTAUTAS, KLAUS RUEDENBERG
     UNIVERSITY OF TOKYO: KIMIHIKO HIRAO, TAKAHITO NAKAJIMA,
          TAKAO TSUNEDA, MUNEAKI KAMIYA, SUSUMU YANAGISAWA,
          KIYOSHI YAGI, MAHITO CHIBA, SEIKEN TOKURA, NAOAKI KAWAKAMI
     UNIVERSITY OF AARHUS: FRANK JENSEN
     UNIVERSITY OF IOWA: VISVALDAS KAIRYS, HUI LI
     NATIONAL INST. OF STANDARDS AND TECHNOLOGY: WALT STEVENS, DAVID GARMER
     UNIVERSITY OF PISA: BENEDETTA MENNUCCI, JACOPO TOMASI
     UNIVERSITY OF MEMPHIS: HENRY KURTZ, PRAKASHAN KORAMBATH
     UNIVERSITY OF ALBERTA: TOBY ZENG, MARIUSZ KLOBUKOWSKI
     UNIVERSITY OF NEW ENGLAND: MARK SPACKMAN
     MIE UNIVERSITY: HIROAKI UMEDA
     NAT. INST. OF ADVANCED INDUSTRIAL SCIENCE AND TECHNOLOGY: KAZUO KITAURA
     MICHIGAN STATE UNIVERSITY:
          KAROL KOWALSKI, MARTA WLOCH, JEFFREY GOUR, JESSE LUTZ,
          WEI LI, JUN SHEN, J. EMILIANO DEUSTUA, PIOTR PIECUCH
     UNIVERSITY OF MINNESOTA:
          YINAN SHU
     UNIVERSITY OF SILESIA: MONIKA MUSIAL, STANISLAW KUCHARSKI
     FACULTES UNIVERSITAIRES NOTRE-DAME DE LA PAIX:
          OLIVIER QUINET, BENOIT CHAMPAGNE
     UNIVERSITY OF CALIFORNIA - SANTA BARBARA: BERNARD KIRTMAN
     INSTITUTE FOR MOLECULAR SCIENCE:
          KAZUYA ISHIMURA, MICHIO KATOUDA, AND SHIGERU NAGASE
     UNIVERSITY OF NOTRE DAME: ANNA POMOGAEVA, DAN CHIPMAN
     KYUSHU UNIVERSITY:
          HARUYUKI NAKANO,
          FENG LONG GU, JACEK KORCHOWIEC, MARCIN MAKOWSKI, AND YURIKO AOKI,
          HIROTOSHI MORI AND EISAKU MIYOSHI
     PENNSYLVANIA STATE UNIVERSITY:
          TZVETELIN IORDANOV, CHET SWALINA, JONATHAN SKONE,
          SHARON HAMMES-SCHIFFER
     WASEDA UNIVERSITY:
          MASATO KOBAYASHI, TOMOKO AKAMA, TSUGUKI TOUMA,
          TAKESHI YOSHIKAWA, YASUHIRO IKABATA, JUNJI SEINO,
          YUYA NAKAJIMA, HIROMI NAKAI
     NANJING UNIVERSITY: SHUHUA LI
     UNIVERSITY OF NEBRASKA:
          PEIFENG SU, DEJUN SI, NANDUN THELLAMUREGE, YALI WANG, HUI LI
     UNIVERSITY OF ZURICH: ROBERTO PEVERATI, KIM BALDRIDGE
     N. COPERNICUS UNIVERSITY AND JACKSON STATE UNIVERSITY:
          MARIA BARYSZ
     UNIVERSITY OF COPENHAGEN: Jimmy Kromann, CASPER STEINMANN
     TOKYO INSTITUTE OF TECHNOLOGY: HIROYA NAKATA
     NAGOYA UNIVERSITY: YOSHIO NISHIMOTO, STEPHAN IRLE
     MOSCOW STATE UNIVERSITY: VLADIMIR MIRONOV
     A.N.NESMEYANOV INSTITUTE OF ORGANOELEMENT COMPOUNDS OF RUSSIAN ACADEMY OF SCIENCES:
          IGOR S. GERASIMOV

 EXECUTION OF GAMESS BEGUN Sun Oct 30 03:38:44 2022

            ECHO OF THE FIRST FEW INPUT CARDS -
 INPUT CARD>!                                                                               
 INPUT CARD>!   GAMESS Calculation input file                                               
 INPUT CARD>!                                                                               
 INPUT CARD>!                                                                               
 INPUT CARD> $CONTRL SCFTYP=RHF MAXIT=200 RUNTYP=HESSIAN                                    
 INPUT CARD>         COORD=UNIQUE MULT=1                                                    
 INPUT CARD>         ICHARG=0                                                               
 INPUT CARD>         DFTTYP=B3LYP                                                           
 INPUT CARD>         MOLPLT=.FALSE. PLTORB=.FALSE.  $END                                    
 INPUT CARD> $SYSTEM TIMLIM=2879 MWORDS=250  $END                                           
 INPUT CARD>                                                                                
 INPUT CARD> $FORCE METHOD=SEMINUM NVIB=2 $END                                              
 INPUT CARD> $STATPT OPTTOL=0.0005 NSTEP=999 $END                                           
 INPUT CARD> $STATPT IHREP=0 HSSEND=.TRUE.  $END                                            
 INPUT CARD>                                                                                
 INPUT CARD> $DFT    METHOD=GRID  NLEB=590  $END                                            
 INPUT CARD>                                                                                
 INPUT CARD> $BASIS  GBASIS=N21 NGAUSS=3 $END                                               
 INPUT CARD>                                                                                
 INPUT CARD> $SCF    DIRSCF=.T. $END                                                        
 INPUT CARD> $GUESS  GUESS=HUCKEL  $END                                                     
 INPUT CARD>                                                                                
 INPUT CARD> $DATA                                                                          
 INPUT CARD>                                                                                
 INPUT CARD>  Cs                                                                            
 INPUT CARD>                                                                                
 INPUT CARD>C     6.0    -0.73     0.75    -0.77                                            
 INPUT CARD>C     6.0    -0.07     2.06    -1.19                                            
 INPUT CARD>C     6.0    -0.24     2.98    -0.00                                            
 INPUT CARD>Br   35.0     0.16    -0.76     1.71                                            
 INPUT CARD>H     1.0    -1.76     0.72    -1.13                                            
 INPUT CARD>H     1.0    -0.54     2.48    -2.09                                            
 INPUT CARD>H     1.0     0.99     1.94    -1.41                                            
 INPUT CARD>H     1.0    -1.23     3.44    -0.00                                            
 INPUT CARD>H     1.0     0.50     3.79    -0.00                                            
 INPUT CARD> $END                                                                           
 INPUT CARD>                                                                                
 INPUT CARD>                                                                                
 INPUT CARD>! Customizations after this line are persisted when using Do More Calculations  
  250000000 WORDS OF MEMORY AVAILABLE

     BASIS OPTIONS
     -------------
     GBASIS=N21          IGAUSS=       3      POLAR=NONE    
     NDFUNC=       0     NFFUNC=       0     DIFFSP=       F
     NPFUNC=       0      DIFFS=       F     BASNAM=        


     RUN TITLE
     ---------
                                                                                 

 THE POINT GROUP OF THE MOLECULE IS CS      
 THE ORDER OF THE PRINCIPAL AXIS IS     0

 ATOM      ATOMIC                      COORDINATES (BOHR)
           CHARGE         X                   Y                   Z
 C           6.0    -1.3794999710        1.4172944908        1.4550890105
 C           6.0    -1.3794999710        1.4172944908       -1.4550890105
 C           6.0    -0.1322808191        3.8928355347        2.2487739254
 C           6.0    -0.1322808191        3.8928355347       -2.2487739254
 C           6.0    -0.4535342371        5.6313834434        0.0000000000
 BR         35.0     0.3023561580       -1.4361917507       -3.2314314390
 BR         35.0     0.3023561580       -1.4361917507        3.2314314390
 H           1.0    -3.3259177384        1.3606027112        2.1353903661
 H           1.0    -3.3259177384        1.3606027112       -2.1353903661
 H           1.0    -1.0204520334        4.6865204496        3.9495273143
 H           1.0    -1.0204520334        4.6865204496       -3.9495273143
 H           1.0     1.8708287278        3.6660684162        2.6645136427
 H           1.0     1.8708287278        3.6660684162       -2.6645136427
 H           1.0    -2.3243629649        6.5006573978        0.0000000000
 H           1.0     0.9448629939        7.1620614935        0.0000000000

          INTERNUCLEAR DISTANCES (ANGS.)
          ------------------------------

                1 C          2 C          3 C          4 C          5 C     

   1 C       0.0000000    1.5400000 *  1.5258113 *  2.4481217 *  2.4095435 *
   2 C       1.5400000 *  0.0000000    2.4481217 *  1.5258113 *  2.4095435 *
   3 C       1.5258113 *  2.4481217 *  0.0000000    2.3800000 *  1.5137371 *
   4 C       2.4481217 *  1.5258113 *  2.3800000 *  0.0000000    1.5137371 *
   5 C       2.4095435 *  2.4095435 *  1.5137371 *  1.5137371 *  0.0000000  
   6 BR      3.0368734    1.9889193 *  4.0515799    2.8767516 *  4.1317914  
   7 BR      1.9889193 *  3.0368734    2.8767516 *  4.0515799    4.1317914  
   8 H       1.0915127 *  2.1614347 *  2.1576144 *  3.1676648    2.9487116 *
   9 H       2.1614347 *  1.0915127 *  3.1676648    2.1576144 *  2.9487116 *
  10 H       2.1843535 *  3.3479247    1.0987720 *  3.3400150    2.1698157 *
  11 H       3.3479247    2.1843535 *  3.3400150    1.0987720 *  2.1698157 *
  12 H       2.1872586 *  3.0210760    1.0892199 *  2.8103381 *  2.1407008 *
  13 H       3.0210760    2.1872586 *  2.8103381 *  1.0892199 *  2.1407008 *
  14 H       2.8423582 *  2.8423582 *  2.1601157 *  2.1601157 *  1.0916501 *
  15 H       3.3685902    3.3685902    2.1757527 *  2.1757527 *  1.0971326 *

                6 BR         7 BR         8 H          9 H         10 H     

   1 C       3.0368734    1.9889193 *  1.0915127 *  2.1614347 *  2.1843535 *
   2 C       1.9889193 *  3.0368734    2.1614347 *  1.0915127 *  3.3479247  
   3 C       4.0515799    2.8767516 *  2.1576144 *  3.1676648    1.0987720 *
   4 C       2.8767516 *  4.0515799    3.1676648    2.1576144 *  3.3400150  
   5 C       4.1317914    4.1317914    2.9487116 *  2.9487116 *  2.1698157 *
   6 BR      0.0000000    3.4200000    3.7339523    2.4926291 *  5.0425787  
   7 BR      3.4200000    0.0000000    2.4926291 *  3.7339523    3.3364652  
   8 H       3.7339523    2.4926291 *  0.0000000    2.2600000 *  2.3468276 *
   9 H       2.4926291 *  3.7339523    2.2600000 *  0.0000000    3.8670919  
  10 H       5.0425787    3.3364652    2.3468276 *  3.8670919    0.0000000  
  11 H       3.3364652    5.0425787    3.8670919    2.3468276 *  4.1800000  
  12 H       4.2087171    2.8405809 *  3.0214732    3.9373214    1.7592328 *
  13 H       2.8405809 *  4.2087171    3.9373214    3.0214732    3.8577843  
  14 H       4.7430159    4.7430159    2.9926911 *  2.9926911 *  2.4012080 *
  15 H       4.8725968    4.8725968    3.9761036    3.9761036    2.6769012 *

               11 H         12 H         13 H         14 H         15 H     

   1 C       3.3479247    2.1872586 *  3.0210760    2.8423582 *  3.3685902  
   2 C       2.1843535 *  3.0210760    2.1872586 *  2.8423582 *  3.3685902  
   3 C       3.3400150    1.0892199 *  2.8103381 *  2.1601157 *  2.1757527 *
   4 C       1.0987720 *  2.8103381 *  1.0892199 *  2.1601157 *  2.1757527 *
   5 C       2.1698157 *  2.1407008 *  2.1407008 *  1.0916501 *  1.0971326 *
   6 BR      3.3364652    4.2087171    2.8405809 *  4.7430159    4.8725968  
   7 BR      5.0425787    2.8405809 *  4.2087171    4.7430159    4.8725968  
   8 H       3.8670919    3.0214732    3.9373214    2.9926911 *  3.9761036  
   9 H       2.3468276 *  3.9373214    3.0214732    2.9926911 *  3.9761036  
  10 H       4.1800000    1.7592328 *  3.8577843    2.4012080 *  2.6769012 *
  11 H       0.0000000    3.8577843    1.7592328 *  2.4012080 *  2.6769012 *
  12 H       3.8577843    0.0000000    2.8200000 *  3.0276228    2.3771201 *
  13 H       1.7592328 *  2.8200000 *  0.0000000    3.0276228    2.3771201 *
  14 H       2.4012080 *  3.0276228    3.0276228    0.0000000    1.7650496 *
  15 H       2.6769012 *  2.3771201 *  2.3771201 *  1.7650496 *  0.0000000  

  * ... LESS THAN  3.000


     ATOMIC BASIS SET
     ----------------
 THE CONTRACTED PRIMITIVE FUNCTIONS HAVE BEEN UNNORMALIZED
 THE CONTRACTED BASIS FUNCTIONS ARE NOW NORMALIZED TO UNITY

  SHELL TYPE  PRIMITIVE        EXPONENT          CONTRACTION COEFFICIENT(S)

 C         

      4   S       1           172.2560000    0.061766907377
      4   S       2            25.9109000    0.358794042852
      4   S       3             5.5333500    0.700713083689

      5   L       4             3.6649800   -0.395895162119    0.236459946619
      5   L       5             0.7705450    1.215834355681    0.860618805716

      6   L       6             0.1958570    1.000000000000    1.000000000000

 C         

     10   S       7           172.2560000    0.061766907377
     10   S       8            25.9109000    0.358794042852
     10   S       9             5.5333500    0.700713083689

     11   L      10             3.6649800   -0.395895162119    0.236459946619
     11   L      11             0.7705450    1.215834355681    0.860618805716

     12   L      12             0.1958570    1.000000000000    1.000000000000

 C         

     13   S      13           172.2560000    0.061766907377
     13   S      14            25.9109000    0.358794042852
     13   S      15             5.5333500    0.700713083689

     14   L      16             3.6649800   -0.395895162119    0.236459946619
     14   L      17             0.7705450    1.215834355681    0.860618805716

     15   L      18             0.1958570    1.000000000000    1.000000000000

 BR        

     22   S      19          6103.2899000    0.062417504532
     22   S      20           923.6974300    0.372041427015
     22   S      21           202.5203100    0.685872849803

     23   L      22           270.6015000   -0.112148696722    0.147751391942
     23   L      23            58.2535700    0.093144507277    0.601055667219
     23   L      24            18.4693300    0.961679371889    0.412870377483

     24   L      25            19.7614200   -0.293870414377    0.025007078757
     24   L      26             6.8217520    0.280266313711    0.486609775809
     24   L      27             2.2916290    0.902035744129    0.582423371046

     25   D      28            33.9650970    0.149666599796
     25   D      29             8.9008312    0.511747499302
     25   D      30             2.4284360    0.575914799215

     26   L      31             2.1312060   -0.651803166543    0.028708331275
     26   L      32             0.4993537    1.336012136394    0.984069543711

     27   L      33             0.1647637    1.000000000000    1.000000000000

 H         

     30   S      34             5.4471780    0.156284978695
     30   S      35             0.8245472    0.904690876670

     31   S      36             0.1831916    1.000000000000

 H         

     34   S      37             5.4471780    0.156284978695
     34   S      38             0.8245472    0.904690876670

     35   S      39             0.1831916    1.000000000000

 H         

     38   S      40             5.4471780    0.156284978695
     38   S      41             0.8245472    0.904690876670

     39   S      42             0.1831916    1.000000000000

 H         

     40   S      43             5.4471780    0.156284978695
     40   S      44             0.8245472    0.904690876670

     41   S      45             0.1831916    1.000000000000

 H         

     42   S      46             5.4471780    0.156284978695
     42   S      47             0.8245472    0.904690876670

     43   S      48             0.1831916    1.000000000000

 TOTAL NUMBER OF BASIS SET SHELLS             =   43
 NUMBER OF CARTESIAN GAUSSIAN BASIS FUNCTIONS =  107
 NUMBER OF ELECTRONS                          =  108
 CHARGE OF MOLECULE                           =    0
 SPIN MULTIPLICITY                            =    1
 NUMBER OF OCCUPIED ORBITALS (ALPHA)          =   54
 NUMBER OF OCCUPIED ORBITALS (BETA )          =   54
 TOTAL NUMBER OF ATOMS                        =   15
 THE NUCLEAR REPULSION ENERGY IS      811.1846107131

 SELECTED MURRAY-HANDY-LAMING RADIAL GRID

 LEGACY BECKE'S FUZZY CELL METHOD

 SELECTED ORIGINAL BECKE'S PARTITION FUNCTION

     LEBEDEV GRID-BASED DFT OPTIONS
     ------------------------------
     DFTTYP=B3LYP   
     NRAD  =      96     NLEB  =     590
     NRAD0 =      96     NLEB0 =     590
     SWOFF =    5.00E-03 (PURE SCF -> DFT)
     SWITCH=    3.00E-04 (COARSE -> TIGHT GRID)
     THRESH=    0.00E+00 GTHRE=    1.00E+00

 GRIMME'S EMPIRICAL DISPERSION CORRECTION= F

     $CONTRL OPTIONS
     ---------------
 SCFTYP=RHF          RUNTYP=HESSIAN      EXETYP=RUN     
 MPLEVL=       0     CITYP =NONE         CCTYP =NONE         VBTYP =NONE    
 DFTTYP=B3LYP        TDDFT =NONE    
 MULT  =       1     ICHARG=       0     NZVAR =       0     COORD =UNIQUE  
 PP    =NONE         RELWFN=NONE         LOCAL =NONE         NUMGRD=       F
 ISPHER=      -1     NOSYM =       0     MAXIT =     200     UNITS =ANGS    
 PLTORB=       F     MOLPLT=       F     AIMPAC=       F     FRIEND=        
 NPRINT=       7     IREST =       0     GEOM  =INPUT   
 NORMF =       0     NORMP =       0     ITOL  =      20     ICUT  =       9
 INTTYP=BEST         GRDTYP=BEST         QMTTOL= 1.0E-06

     $SYSTEM OPTIONS
     ---------------
  REPLICATED MEMORY=   250000000 WORDS (ON EVERY NODE).
 DISTRIBUTED MEMDDI=           0 MILLION WORDS IN AGGREGATE,
 MEMDDI DISTRIBUTED OVER   1 PROCESSORS IS           0 WORDS/PROCESSOR.
 TOTAL MEMORY REQUESTED ON EACH PROCESSOR=   250000000 WORDS.
 TIMLIM=        2879.00 MINUTES, OR       2.0 DAYS.
 PARALL= F  BALTYP=  DLB     KDIAG=    0  COREFL= F
 MXSEQ2=     300 MXSEQ3=     150  mem10=         0

          ----------------
          PROPERTIES INPUT
          ----------------

     MOMENTS            FIELD           POTENTIAL          DENSITY
 IEMOM =       1   IEFLD =       0   IEPOT =       0   IEDEN =       0
 WHERE =COMASS     WHERE =NUCLEI     WHERE =NUCLEI     WHERE =NUCLEI  
 OUTPUT=BOTH       OUTPUT=BOTH       OUTPUT=BOTH       OUTPUT=BOTH    
 IEMINT=       0   IEFINT=       0                     IEDINT=       0
                                                       MORB  =       0
          EXTRAPOLATION IN EFFECT
          DIIS IN EFFECT
 ORBITAL PRINTING OPTION: NPREO=     1   107     2     1

     -------------------------------
     INTEGRAL TRANSFORMATION OPTIONS
     -------------------------------
     NWORD  =            0
     CUTOFF = 1.0E-09     MPTRAN =       0
     DIRTRF =       T     AOINTS =DUP     

          ----------------------
          INTEGRAL INPUT OPTIONS
          ----------------------
 NOPK  =       1 NORDER=       0 SCHWRZ=       T

     ------------------------------------------
     THE POINT GROUP IS CS , NAXIS= 0, ORDER= 2
     ------------------------------------------

     DIMENSIONS OF THE SYMMETRY SUBSPACES ARE
 A'  =   58     A'' =   49

 ..... DONE SETTING UP THE RUN .....
 STEP CPU TIME =     0.01 TOTAL CPU TIME =          0.0 (      0.0 MIN)
 TOTAL WALL CLOCK TIME=          0.0 SECONDS, CPU UTILIZATION IS    33.33%

     ---------------------------------
     HESSIAN MATRIX CONTROL PARAMETERS
     ---------------------------------
     METHOD=SEMINUM    NVIB  =       2   VIBSIZ= 0.01000
     RDHESS=       F   PURIFY=       F   PRTIFC=       F
     VIBANL=       T   DECOMP=       F   PROJCT=       F
     SCLFAC= 1.00000   PRTSCN=       F   NPRT  =       0
     PULCOR=       F   NPUN  =       0   REDOVB=       T
     HSSTYP=GENERAL 
     THERMOCHEMISTRY WILL BE PRINTED FOR    1 TEMPERATURES:
      298.15000

               * * * EFFICIENCY NOTE * * *
 THIS CALCULATION CAN BE RUN WITH DIFFERENTIATION METHOD=ANALYTIC
 THIS MIGHT BE MORE ACCURATE AND/OR FASTER THAN YOUR CHOICE,
 BUT THE REQUESTED CALCULATION METHOD=SEMINUM  IS PROCEEDING.

1   ATOM  0
                                        -------------------
   COORD  0                             NUCLEAR COORDINATES
                                        -------------------
     VIB  0

                       ATOM             X              Y              Z

                 1  C               -1.379500       1.417294       1.455089
                 2  C               -1.379500       1.417294      -1.455089
                 3  C               -0.132281       3.892836       2.248774
                 4  C               -0.132281       3.892836      -2.248774
                 5  C               -0.453534       5.631383       0.000000
                 6  BR               0.302356      -1.436192      -3.231431
                 7  BR               0.302356      -1.436192       3.231431
                 8  H               -3.325918       1.360603       2.135390
                 9  H               -3.325918       1.360603      -2.135390
                10  H               -1.020452       4.686520       3.949527
                11  H               -1.020452       4.686520      -3.949527
                12  H                1.870829       3.666068       2.664514
                13  H                1.870829       3.666068      -2.664514
                14  H               -2.324363       6.500657       0.000000
                15  H                0.944863       7.162061       0.000000

          ********************
          1 ELECTRON INTEGRALS
          ********************
 ...... END OF ONE-ELECTRON INTEGRALS ......
 STEP CPU TIME =     0.01 TOTAL CPU TIME =          0.0 (      0.0 MIN)
 TOTAL WALL CLOCK TIME=          0.0 SECONDS, CPU UTILIZATION IS    50.00%

          -------------
          GUESS OPTIONS
          -------------
          GUESS =HUCKEL            NORB  =       0          NORDER=       0
          MIX   =       F          PRTMO =       F          PUNMO =       F
          TOLZ  = 1.0E-08          TOLE  = 1.0E-05
          SYMDEN=       F          PURIFY=       F

 INITIAL GUESS ORBITALS GENERATED BY HUCKEL   ROUTINE.
 HUCKEL GUESS REQUIRES    114708 WORDS.

 SYMMETRIES FOR INITIAL GUESS ORBITALS FOLLOW.   BOTH SET(S).
    54 ORBITALS ARE OCCUPIED (   33 CORE ORBITALS).
    34=?A'     35=?A''    36=?A'     37=?A'     38=?A''    39=?A'     40=?A' 
    41=?A''    42=?A'     43=?A''    44=?A'     45=?A'     46=?A''    47=?A' 
    48=?A''    49=?A'     50=?A''    51=?A'     52=?A'     53=?A''    54=?A''
    55=?A'     56=?A''    57=?A'     58=?A''    59=?A'     60=A'      61=A'  
    62=A'      63=A'      64=A'  
 ...... END OF INITIAL ORBITAL SELECTION ......
 STEP CPU TIME =     0.14 TOTAL CPU TIME =          0.2 (      0.0 MIN)
 TOTAL WALL CLOCK TIME=          0.2 SECONDS, CPU UTILIZATION IS    84.21%

                    ----------------------
                    AO INTEGRAL TECHNOLOGY
                    ----------------------
     S,P,L SHELL ROTATED AXIS INTEGRALS, REPROGRAMMED BY
        KAZUYA ISHIMURA (IMS) AND JOSE SIERRA (SYNSTAR).
     S,P,D,L SHELL ROTATED AXIS INTEGRALS PROGRAMMED BY
        KAZUYA ISHIMURA (INSTITUTE FOR MOLECULAR SCIENCE).
     S,P,D,F,G SHELL TO TOTAL QUARTET ANGULAR MOMENTUM SUM 5,
        ERIC PROGRAM BY GRAHAM FLETCHER (ELORET AND NASA ADVANCED
        SUPERCOMPUTING DIVISION, AMES RESEARCH CENTER).
     S,P,D,F,G,L SHELL GENERAL RYS QUADRATURE PROGRAMMED BY
        MICHEL DUPUIS (PACIFIC NORTHWEST NATIONAL LABORATORY).

          --------------------
          2 ELECTRON INTEGRALS
          --------------------

 DIRECT SCF METHOD SKIPS INTEGRAL STORAGE ON DISK.
 DIRECT TRANSFORMATION SKIPS AO INTEGRAL STORAGE ON DISK.
  ...... END OF TWO-ELECTRON INTEGRALS .....
 STEP CPU TIME =     0.01 TOTAL CPU TIME =          0.2 (      0.0 MIN)
 TOTAL WALL CLOCK TIME=          0.2 SECONDS, CPU UTILIZATION IS    85.00%

          --------------------------
             R-B3LYP SCF CALCULATION
          --------------------------

     NUCLEAR ENERGY =       811.1846107131
     MAXIT =  200     NPUNCH=    2
     EXTRAP=T  DAMP=F  SHIFT=F  RSTRCT=F  DIIS=T  DEM=F  SOSCF=F
         DENSITY MATRIX CONVERGENCE THRESHOLD=  2.00E-05
     COARSE -> FINE DFT GRID SWITCH THRESHOLD=  3.00E-04 (SWITCH IN $DFT)
                   HF -> DFT SWITCH THRESHOLD=  5.00E-03 (SWOFF IN $DFT)
     MEMORY REQUIRED FOR RHF ITERS=   1087953 WORDS.

 DIRECT SCF CALCULATION, SCHWRZ=T   FDIFF=T,  DIRTHR=  0.00E+00 NITDIR=10
 SCHWARZ INEQUALITY OVERHEAD:      5208 INTEGRALS, T=        0.00

     EXCHANGE FUNCTIONAL   =B88&HFX   
     CORRELATION FUNCTIONAL=LYP88&VWN5
     DFT THRESHOLD         =.118E-08
 FOR AN EULER-MACLAURIN QUADRATURE USING  96 RADIAL POINTS:
 SMALLEST GAUSSIAN PRIMITIVE EXPONENT=        0.1647637000 OF TYPE -P-
 ON ATOM NUMBER   6 HAS RADIAL NORMALIZATION=  1.000000
  LARGEST GAUSSIAN PRIMITIVE EXPONENT=     6103.2899000000 OF TYPE -S-
 ON ATOM NUMBER   6 HAS RADIAL NORMALIZATION=  1.000000
 DFT IS SWITCHED OFF, PERFORMING PURE SCF UNTIL SWOFF THRESHOLD IS REACHED.

                                                                                   NONZERO     BLOCKS
 ITER EX DEM     TOTAL ENERGY        E CHANGE  DENSITY CHANGE    DIIS ERROR      INTEGRALS    SKIPPED
   1  0  0    -5312.3406865459 -5312.3406865459   0.776469922   1.942232544        4863382      85467
          * * *   INITIATING DIIS PROCEDURE   * * *
   2  1  0    -5313.0015674181    -0.6608808722   0.072206293   0.054360864        4856412      88440
   3  2  0    -5313.0277854542    -0.0262180361   0.081716552   0.032065995        4820442      92699
   4  3  0    -5313.0354007283    -0.0076152740   0.020918131   0.007440306        4762607      97139
   5  4  0    -5313.0359284130    -0.0005276848   0.006102848   0.002295645        4672003     102131
   6  5  0    -5313.0359592500    -0.0000308370   0.001062996   0.000419255        4503480     108993
 CONVERGED TO SWOFF, SO DFT CALCULATION IS NOW SWITCHED ON.
          * * *   INITIATING DIIS PROCEDURE   * * *
   7  6  0    -5317.4520712563    -4.4161120063   0.110189282   0.167765386        4864935      85026
   8  7  0    -5317.4711775468    -0.0191062904   0.102861864   0.032714173        4829894      92237
   9  8  0    -5317.4677055372     0.0034720096   0.067570697   0.033563517        4798288      94177
  10  9  0    -5317.4779487999    -0.0102432627   0.006901742   0.004251989        4769472      96444
  11 10  0    -5317.4781215376    -0.0001727377   0.001267473   0.000851718        4570343     107121
  12 11  0    -5317.4781245775    -0.0000030398   0.000282202   0.000282664        4312713     114379
  13 12  0    -5317.4781248272    -0.0000002497   0.000023671   0.000015459        4074957     122136
  14 13  0    -5317.4781248309    -0.0000000037   0.000010065   0.000005587        3739130     132499
  15 14  0    -5317.4781248308     0.0000000001   0.000003289   0.000002670        3291612     144728

          -----------------
          DENSITY CONVERGED
          -----------------
     TIME TO FORM FOCK OPERATORS=      19.6 SECONDS (       1.3 SEC/ITER)
     FOCK TIME ON FIRST ITERATION=       0.2, LAST ITERATION=       2.0
     TIME TO SOLVE SCF EQUATIONS=       0.1 SECONDS (       0.0 SEC/ITER)

 FINAL R-B3LYP ENERGY IS    -5317.4781248308 AFTER  15 ITERATIONS
 DFT EXCHANGE + CORRELATION ENERGY =      -170.9414925264
 TOTAL ELECTRON NUMBER             =       108.0000135809

          ------------
          EIGENVECTORS
          ------------

                      1          2          3          4          5
                 -479.5242  -479.5241   -62.0781   -62.0780   -55.6828
                     A''        A'         A''        A'         A'' 
    1  C  1  S   -0.000017   0.000011  -0.000005   0.000005   0.000172
    2  C  1  S   -0.000205   0.000125   0.000079  -0.000008   0.001443
    3  C  1  X   -0.000089   0.000014   0.000081   0.000012   0.000534
    4  C  1  Y    0.000104  -0.000041  -0.000087   0.000006  -0.000597
    5  C  1  Z   -0.000038   0.000065   0.000011  -0.000082   0.000168
    6  C  1  S    0.000435  -0.000329  -0.000017  -0.000040  -0.002903
    7  C  1  X    0.000392   0.000006  -0.000178  -0.000190  -0.002690
    8  C  1  Y    0.000020  -0.000106  -0.000604   0.000383   0.000001
    9  C  1  Z   -0.000005  -0.000200   0.000197   0.000092   0.000437
   10  C  2  S    0.000017   0.000011   0.000005   0.000005  -0.000172
   11  C  2  S    0.000205   0.000125  -0.000079  -0.000008  -0.001443
   12  C  2  X    0.000089   0.000014  -0.000081   0.000012  -0.000534
   13  C  2  Y   -0.000104  -0.000041   0.000087   0.000006   0.000597
   14  C  2  Z   -0.000038  -0.000065   0.000011   0.000082   0.000168
   15  C  2  S   -0.000435  -0.000329   0.000017  -0.000040   0.002903
   16  C  2  X   -0.000392   0.000006   0.000178  -0.000190   0.002690
   17  C  2  Y   -0.000020  -0.000106   0.000604   0.000383  -0.000001
   18  C  2  Z   -0.000005   0.000200   0.000197  -0.000092   0.000437
   19  C  3  S    0.000012  -0.000011  -0.000015   0.000008  -0.000096
   20  C  3  S    0.000096  -0.000079  -0.000129   0.000080  -0.000688
   21  C  3  X    0.000036   0.000005  -0.000040  -0.000013  -0.000266
   22  C  3  Y   -0.000060   0.000040   0.000126  -0.000084   0.000326
   23  C  3  Z   -0.000007  -0.000026  -0.000006   0.000046   0.000074
   24  C  3  S   -0.000199   0.000254   0.000186  -0.000063   0.001664
   25  C  3  X   -0.000175  -0.000108   0.000075   0.000160   0.001432
   26  C  3  Y    0.000513  -0.000274  -0.000769   0.000424  -0.003299
   27  C  3  Z    0.000031   0.000115  -0.000006  -0.000270  -0.000309
   28  C  4  S   -0.000012  -0.000011   0.000015   0.000008   0.000096
   29  C  4  S   -0.000096  -0.000079   0.000129   0.000080   0.000688
   30  C  4  X   -0.000036   0.000005   0.000040  -0.000013   0.000266
   31  C  4  Y    0.000060   0.000040  -0.000126  -0.000084  -0.000326
   32  C  4  Z   -0.000007   0.000026  -0.000006  -0.000046   0.000074
   33  C  4  S    0.000199   0.000254  -0.000186  -0.000063  -0.001664
   34  C  4  X    0.000175  -0.000108  -0.000075   0.000160  -0.001432
   35  C  4  Y   -0.000513  -0.000274   0.000769   0.000424   0.003299
   36  C  4  Z    0.000031  -0.000115  -0.000006   0.000270  -0.000309
   37  C  5  S    0.000000  -0.000003   0.000000   0.000018   0.000000
   38  C  5  S    0.000000  -0.000018   0.000000   0.000122   0.000000
   39  C  5  X    0.000000  -0.000006   0.000000  -0.000019   0.000000
   40  C  5  Y    0.000000  -0.000020   0.000000   0.000017   0.000000
   41  C  5  Z    0.000030   0.000000  -0.000046   0.000000  -0.000202
   42  C  5  S    0.000000   0.000221   0.000000  -0.000730   0.000000
   43  C  5  X    0.000000   0.000085   0.000000  -0.000019   0.000000
   44  C  5  Y    0.000000   0.000071   0.000000   0.000113   0.000000
   45  C  5  Z   -0.000332   0.000000   0.000538   0.000000   0.002058
   46  BR 6  S    0.695418   0.695426  -0.234038  -0.234051   0.000358
   47  BR 6  S    0.039610   0.039541   0.721504   0.721626  -0.001390
   48  BR 6  X   -0.000005  -0.000004  -0.000417  -0.000417  -0.308325
   49  BR 6  Y    0.000011   0.000009   0.000668   0.000669   0.510419
   50  BR 6  Z    0.000013   0.000001   0.000390   0.000399   0.351250
   51  BR 6  S   -0.016861  -0.017427   0.067824   0.068760  -0.003323
   52  BR 6  X    0.000011   0.000008  -0.000062  -0.000061  -0.017778
   53  BR 6  Y   -0.000032  -0.000023   0.000122   0.000116   0.029509
   54  BR 6  Z   -0.000041   0.000002   0.000122   0.000033   0.020349
   55  BR 6 XX    0.003371   0.003628  -0.015546  -0.015950   0.001465
   56  BR 6 YY    0.003375   0.003629  -0.015524  -0.015927   0.001473
   57  BR 6 ZZ    0.003372   0.003627  -0.015544  -0.015948   0.001458
   58  BR 6 XY   -0.000001  -0.000001  -0.000028  -0.000025  -0.000027
   59  BR 6 XZ   -0.000001   0.000000  -0.000019  -0.000018  -0.000016
   60  BR 6 YZ    0.000003   0.000000   0.000028   0.000028   0.000014
   61  BR 6  S    0.003673   0.003381  -0.005443  -0.004847  -0.001955
   62  BR 6  X   -0.000047  -0.000030   0.000111   0.000098   0.006341
   63  BR 6  Y    0.000130   0.000092  -0.000271  -0.000233  -0.010795
   64  BR 6  Z    0.000167  -0.000010  -0.000368   0.000004  -0.007611
   65  BR 6  S   -0.001835  -0.001589   0.003860   0.003144   0.001612
   66  BR 6  X    0.000052   0.000028  -0.000311  -0.000220  -0.003172
   67  BR 6  Y   -0.000121  -0.000113   0.000600   0.000491   0.005396
   68  BR 6  Z   -0.000207   0.000018   0.000693   0.000092   0.004018
   69  BR 7  S   -0.695418   0.695426   0.234038  -0.234051  -0.000358
   70  BR 7  S   -0.039610   0.039541  -0.721504   0.721626   0.001390
   71  BR 7  X    0.000005  -0.000004   0.000417  -0.000417   0.308325
   72  BR 7  Y   -0.000011   0.000009  -0.000668   0.000669  -0.510419
   73  BR 7  Z    0.000013  -0.000001   0.000390  -0.000399   0.351250
   74  BR 7  S    0.016861  -0.017427  -0.067824   0.068760   0.003323
   75  BR 7  X   -0.000011   0.000008   0.000062  -0.000061   0.017778
   76  BR 7  Y    0.000032  -0.000023  -0.000122   0.000116  -0.029509
   77  BR 7  Z   -0.000041  -0.000002   0.000122  -0.000033   0.020349
   78  BR 7 XX   -0.003371   0.003628   0.015546  -0.015950  -0.001465
   79  BR 7 YY   -0.003375   0.003629   0.015524  -0.015927  -0.001473
   80  BR 7 ZZ   -0.003372   0.003627   0.015544  -0.015948  -0.001458
   81  BR 7 XY    0.000001  -0.000001   0.000028  -0.000025   0.000027
   82  BR 7 XZ   -0.000001  -0.000000  -0.000019   0.000018  -0.000016
   83  BR 7 YZ    0.000003  -0.000000   0.000028  -0.000028   0.000014
   84  BR 7  S   -0.003673   0.003381   0.005443  -0.004847   0.001955
   85  BR 7  X    0.000047  -0.000030  -0.000111   0.000098  -0.006341
   86  BR 7  Y   -0.000130   0.000092   0.000271  -0.000233   0.010795
   87  BR 7  Z    0.000167   0.000010  -0.000368  -0.000004  -0.007611
   88  BR 7  S    0.001835  -0.001589  -0.003860   0.003144  -0.001612
   89  BR 7  X   -0.000052   0.000028   0.000311  -0.000220   0.003172
   90  BR 7  Y    0.000121  -0.000113  -0.000600   0.000491  -0.005396
   91  BR 7  Z   -0.000207  -0.000018   0.000693  -0.000092   0.004018
   92  H  8  S    0.000056   0.000008  -0.000129   0.000047  -0.000296
   93  H  8  S   -0.000038   0.000154   0.000163  -0.000278   0.000178
   94  H  9  S   -0.000056   0.000008   0.000129   0.000047   0.000296
   95  H  9  S    0.000038   0.000154  -0.000163  -0.000278  -0.000178
   96  H 10  S   -0.000018  -0.000038   0.000020   0.000039   0.000118
   97  H 10  S   -0.000087  -0.000033   0.000089   0.000061   0.000631
   98  H 11  S    0.000018  -0.000038  -0.000020   0.000039  -0.000118
   99  H 11  S    0.000087  -0.000033  -0.000089   0.000061  -0.000631
  100  H 12  S    0.000103  -0.000052  -0.000163   0.000089  -0.000586
  101  H 12  S    0.000003   0.000081   0.000183  -0.000221  -0.000463
  102  H 13  S   -0.000103  -0.000052   0.000163   0.000089   0.000586
  103  H 13  S   -0.000003   0.000081  -0.000183  -0.000221   0.000463
  104  H 14  S    0.000000  -0.000000   0.000000   0.000043   0.000000
  105  H 14  S    0.000000  -0.000011   0.000000   0.000054   0.000000
  106  H 15  S    0.000000  -0.000029   0.000000   0.000045   0.000000
  107  H 15  S    0.000000  -0.000052   0.000000   0.000015   0.000000

                      6          7          8          9         10
                  -55.6825   -55.6781   -55.6780   -55.6779   -55.6778
                     A'         A''        A''        A'         A'  
    1  C  1  S   -0.000097  -0.000054  -0.000001  -0.000001   0.000009
    2  C  1  S   -0.000700  -0.000305   0.000003  -0.000014   0.000169
    3  C  1  X   -0.000007  -0.000008   0.000122   0.000042   0.000041
    4  C  1  Y    0.000127  -0.000078  -0.000093   0.000139   0.000007
    5  C  1  Z   -0.000376  -0.000090   0.000030  -0.000058  -0.000155
    6  C  1  S    0.001499   0.001733   0.000061   0.000097   0.000129
    7  C  1  X   -0.000241   0.000458  -0.000396  -0.000361  -0.000237
    8  C  1  Y    0.001081  -0.000023   0.000054  -0.000455  -0.000021
    9  C  1  Z    0.001251  -0.000135  -0.000448   0.000139   0.000660
   10  C  2  S   -0.000097   0.000054   0.000001  -0.000001   0.000009
   11  C  2  S   -0.000700   0.000305  -0.000003  -0.000014   0.000169
   12  C  2  X   -0.000007   0.000008  -0.000122   0.000042   0.000041
   13  C  2  Y    0.000127   0.000078   0.000093   0.000139   0.000007
   14  C  2  Z    0.000376  -0.000090   0.000030   0.000058   0.000155
   15  C  2  S    0.001499  -0.001733  -0.000061   0.000097   0.000129
   16  C  2  X   -0.000241  -0.000458   0.000396  -0.000361  -0.000237
   17  C  2  Y    0.001081   0.000023  -0.000054  -0.000455  -0.000021
   18  C  2  Z   -0.001251  -0.000135  -0.000448  -0.000139  -0.000660
   19  C  3  S    0.000084   0.000018  -0.000021   0.000002  -0.000004
   20  C  3  S    0.000590   0.000105  -0.000186   0.000032  -0.000060
   21  C  3  X   -0.000026   0.000000   0.000016  -0.000027  -0.000040
   22  C  3  Y   -0.000220  -0.000102   0.000229  -0.000197   0.000053
   23  C  3  Z    0.000141   0.000196   0.000047   0.000088  -0.000079
   24  C  3  S   -0.002063  -0.000270  -0.000284   0.000660  -0.000202
   25  C  3  X    0.000674   0.000031  -0.000121   0.000142   0.000425
   26  C  3  Y    0.001759   0.001025  -0.001328   0.000743  -0.000404
   27  C  3  Z   -0.000687  -0.000830   0.000000  -0.000594   0.000434
   28  C  4  S    0.000084  -0.000018   0.000021   0.000002  -0.000004
   29  C  4  S    0.000590  -0.000105   0.000186   0.000032  -0.000060
   30  C  4  X   -0.000026  -0.000000  -0.000016  -0.000027  -0.000040
   31  C  4  Y   -0.000220   0.000102  -0.000229  -0.000197   0.000053
   32  C  4  Z   -0.000141   0.000196   0.000047  -0.000088   0.000079
   33  C  4  S   -0.002063   0.000270   0.000284   0.000660  -0.000202
   34  C  4  X    0.000674  -0.000031   0.000121   0.000142   0.000425
   35  C  4  Y    0.001759  -0.001025   0.001328   0.000743  -0.000404
   36  C  4  Z    0.000687  -0.000830   0.000000   0.000594  -0.000434
   37  C  5  S    0.000011   0.000000   0.000000   0.000022  -0.000041
   38  C  5  S    0.000068   0.000000   0.000000   0.000095  -0.000294
   39  C  5  X    0.000049   0.000000   0.000000  -0.000058   0.000020
   40  C  5  Y    0.000117   0.000000   0.000000   0.000135   0.000042
   41  C  5  Z    0.000000  -0.000002  -0.000044   0.000000   0.000000
   42  C  5  S   -0.001126   0.000000   0.000000  -0.001462   0.001332
   43  C  5  X   -0.000551   0.000000   0.000000  -0.000009  -0.000228
   44  C  5  Y   -0.000480   0.000000   0.000000  -0.000132  -0.000597
   45  C  5  Z    0.000000  -0.000842   0.000921   0.000000   0.000000
   46  BR 6  S    0.000327   0.000003   0.000005   0.000011  -0.000026
   47  BR 6  S   -0.001148  -0.000160  -0.000074  -0.000092   0.000180
   48  BR 6  X   -0.316199   0.085848   0.613708   0.515857   0.336172
   49  BR 6  Y    0.517461  -0.353410   0.305912   0.427425  -0.169100
   50  BR 6  Z    0.333600   0.588870   0.094120  -0.174091   0.580967
   51  BR 6  S   -0.001520  -0.001615  -0.000701  -0.000650   0.001047
   52  BR 6  X   -0.018182   0.004929   0.035216   0.029543   0.019253
   53  BR 6  Y    0.029811  -0.020313   0.017597   0.024518  -0.009694
   54  BR 6  Z    0.019166   0.033927   0.005434  -0.009952   0.033226
   55  BR 6 XX    0.000640   0.000663   0.000270   0.000246  -0.000456
   56  BR 6 YY    0.000670   0.000639   0.000340   0.000329  -0.000455
   57  BR 6 ZZ    0.000643   0.000720   0.000318   0.000273  -0.000402
   58  BR 6 XY   -0.000033   0.000012   0.000029   0.000019   0.000031
   59  BR 6 XZ   -0.000026  -0.000022   0.000020   0.000026  -0.000009
   60  BR 6 YZ    0.000041   0.000030   0.000014   0.000003   0.000029
   61  BR 6  S   -0.000916  -0.001130  -0.000430  -0.000413   0.000732
   62  BR 6  X    0.006294  -0.001678  -0.012026  -0.009882  -0.006447
   63  BR 6  Y   -0.010541   0.007034  -0.006178  -0.008356   0.003296
   64  BR 6  Z   -0.006568  -0.012172  -0.001994   0.003241  -0.010888
   65  BR 6  S    0.001036   0.001576   0.000360   0.000404  -0.000995
   66  BR 6  X   -0.003064   0.000665   0.005724   0.004504   0.002974
   67  BR 6  Y    0.005397  -0.003190   0.003001   0.003899  -0.001663
   68  BR 6  Z    0.003200   0.006740   0.001073  -0.001342   0.004451
   69  BR 7  S    0.000327  -0.000003  -0.000005   0.000011  -0.000026
   70  BR 7  S   -0.001148   0.000160   0.000074  -0.000092   0.000180
   71  BR 7  X   -0.316199  -0.085848  -0.613708   0.515857   0.336172
   72  BR 7  Y    0.517461   0.353410  -0.305912   0.427425  -0.169100
   73  BR 7  Z   -0.333600   0.588870   0.094120   0.174091  -0.580967
   74  BR 7  S   -0.001520   0.001615   0.000701  -0.000650   0.001047
   75  BR 7  X   -0.018182  -0.004929  -0.035216   0.029543   0.019253
   76  BR 7  Y    0.029811   0.020313  -0.017597   0.024518  -0.009694
   77  BR 7  Z   -0.019166   0.033927   0.005434   0.009952  -0.033226
   78  BR 7 XX    0.000640  -0.000663  -0.000270   0.000246  -0.000456
   79  BR 7 YY    0.000670  -0.000639  -0.000340   0.000329  -0.000455
   80  BR 7 ZZ    0.000643  -0.000720  -0.000318   0.000273  -0.000402
   81  BR 7 XY   -0.000033  -0.000012  -0.000029   0.000019   0.000031
   82  BR 7 XZ    0.000026  -0.000022   0.000020  -0.000026   0.000009
   83  BR 7 YZ   -0.000041   0.000030   0.000014  -0.000003  -0.000029
   84  BR 7  S   -0.000916   0.001130   0.000430  -0.000413   0.000732
   85  BR 7  X    0.006294   0.001678   0.012026  -0.009882  -0.006447
   86  BR 7  Y   -0.010541  -0.007034   0.006178  -0.008356   0.003296
   87  BR 7  Z    0.006568  -0.012172  -0.001994  -0.003241   0.010888
   88  BR 7  S    0.001036  -0.001576  -0.000360   0.000404  -0.000995
   89  BR 7  X   -0.003064  -0.000665  -0.005724   0.004504   0.002974
   90  BR 7  Y    0.005397   0.003190  -0.003001   0.003899  -0.001663
   91  BR 7  Z   -0.003200   0.006740   0.001073   0.001342  -0.004451
   92  H  8  S   -0.000096  -0.000002   0.000177  -0.000134  -0.000165
   93  H  8  S   -0.001081  -0.000235  -0.000846   0.000111   0.000252
   94  H  9  S   -0.000096   0.000002  -0.000177  -0.000134  -0.000165
   95  H  9  S   -0.001081   0.000235   0.000846   0.000111   0.000252
   96  H 10  S    0.000267   0.000146   0.000042   0.000042  -0.000042
   97  H 10  S    0.000216   0.000098   0.000200   0.000033   0.000085
   98  H 11  S    0.000267  -0.000146  -0.000042   0.000042  -0.000042
   99  H 11  S    0.000216  -0.000098  -0.000200   0.000033   0.000085
  100  H 12  S    0.000259   0.000134  -0.000358   0.000293  -0.000035
  101  H 12  S   -0.000277  -0.000063   0.000962  -0.000924  -0.000326
  102  H 13  S    0.000259  -0.000134   0.000358   0.000293  -0.000035
  103  H 13  S   -0.000277   0.000063  -0.000962  -0.000924  -0.000326
  104  H 14  S   -0.000008   0.000000   0.000000   0.000100  -0.000091
  105  H 14  S    0.000017   0.000000   0.000000   0.000155  -0.000119
  106  H 15  S    0.000181   0.000000   0.000000   0.000068  -0.000034
  107  H 15  S    0.000279   0.000000   0.000000   0.000261   0.000157

                     11         12         13         14         15
                  -10.1854   -10.1845   -10.1289   -10.1284   -10.1253
                     A''        A'         A''        A'         A'  
    1  C  1  S    0.698185   0.697502   0.003545   0.005507   0.003969
    2  C  1  S    0.084228   0.079365  -0.001523  -0.001451  -0.001505
    3  C  1  X    0.000256   0.000014   0.000172  -0.000325   0.000248
    4  C  1  Y    0.000057   0.000174   0.000289   0.000406  -0.001103
    5  C  1  Z    0.000253  -0.000115  -0.000568   0.000429   0.000243
    6  C  1  S   -0.092262  -0.053362   0.022375   0.015301   0.003772
    7  C  1  X   -0.001530  -0.000661   0.005544   0.004629  -0.001489
    8  C  1  Y   -0.009585  -0.005951   0.012892   0.007589   0.003440
    9  C  1  Z    0.016014  -0.006431   0.000833   0.002222   0.000352
   10  C  2  S   -0.698185   0.697502  -0.003545   0.005507   0.003969
   11  C  2  S   -0.084228   0.079365   0.001523  -0.001451  -0.001505
   12  C  2  X   -0.000256   0.000014  -0.000172  -0.000325   0.000248
   13  C  2  Y   -0.000057   0.000174  -0.000289   0.000406  -0.001103
   14  C  2  Z    0.000253   0.000115  -0.000568  -0.000429  -0.000243
   15  C  2  S    0.092262  -0.053362  -0.022375   0.015301   0.003772
   16  C  2  X    0.001530  -0.000661  -0.005544   0.004629  -0.001489
   17  C  2  Y    0.009585  -0.005951  -0.012892   0.007589   0.003440
   18  C  2  Z    0.016014   0.006431   0.000833  -0.002222  -0.000352
   19  C  3  S   -0.004193  -0.006619   0.698064   0.687555   0.117773
   20  C  3  S   -0.002525  -0.003266   0.084094   0.079593   0.010949
   21  C  3  X   -0.000223   0.000152   0.000315  -0.000498   0.000024
   22  C  3  Y   -0.000958   0.000120   0.000051  -0.000143   0.000082
   23  C  3  Z   -0.000214   0.000465  -0.001475   0.000396  -0.000256
   24  C  3  S    0.022259   0.016604  -0.080182  -0.074925   0.013572
   25  C  3  X   -0.005818  -0.003711   0.001324   0.005052  -0.000561
   26  C  3  Y   -0.008353  -0.008878   0.003146  -0.001223   0.009230
   27  C  3  Z   -0.005411  -0.002430   0.011309   0.006325  -0.011329
   28  C  4  S    0.004193  -0.006619  -0.698064   0.687555   0.117773
   29  C  4  S    0.002525  -0.003266  -0.084094   0.079593   0.010949
   30  C  4  X    0.000223   0.000152  -0.000315  -0.000498   0.000024
   31  C  4  Y    0.000958   0.000120  -0.000051  -0.000143   0.000082
   32  C  4  Z   -0.000214  -0.000465  -0.001475  -0.000396   0.000256
   33  C  4  S   -0.022259   0.016604   0.080182  -0.074925   0.013572
   34  C  4  X    0.005818  -0.003711  -0.001324   0.005052  -0.000561
   35  C  4  Y    0.008353  -0.008878  -0.003146  -0.001223   0.009230
   36  C  4  Z   -0.005411   0.002430   0.011309  -0.006325   0.011329
   37  C  5  S    0.000000  -0.004672   0.000000  -0.167525   0.972560
   38  C  5  S    0.000000  -0.002814   0.000000  -0.023211   0.114006
   39  C  5  X    0.000000   0.000668   0.000000   0.000063  -0.000172
   40  C  5  Y    0.000000   0.001376   0.000000  -0.000073  -0.000805
   41  C  5  Z   -0.001048   0.000000   0.000689   0.000000   0.000000
   42  C  5  S    0.000000   0.002100   0.000000   0.051739  -0.100385
   43  C  5  X    0.000000  -0.003522   0.000000   0.000554  -0.000692
   44  C  5  Y    0.000000  -0.002950   0.000000  -0.013753   0.010075
   45  C  5  Z   -0.000830   0.000000   0.017377   0.000000   0.000000
   46  BR 6  S    0.000055  -0.000031  -0.000017   0.000014   0.000004
   47  BR 6  S   -0.000052  -0.000116   0.000176  -0.000097  -0.000147
   48  BR 6  X    0.000074  -0.000041  -0.000010   0.000024   0.000016
   49  BR 6  Y   -0.000130   0.000055   0.000062  -0.000046  -0.000018
   50  BR 6  Z   -0.000067   0.000001   0.000029  -0.000020   0.000012
   51  BR 6  S   -0.000260  -0.000871   0.001148  -0.000636  -0.000952
   52  BR 6  X   -0.000260   0.000145   0.000035  -0.000085  -0.000055
   53  BR 6  Y    0.000455  -0.000194  -0.000215   0.000160   0.000066
   54  BR 6  Z    0.000231  -0.000007  -0.000102   0.000068  -0.000040
   55  BR 6 XX    0.000643  -0.000070  -0.000504   0.000330   0.000293
   56  BR 6 YY    0.000468   0.000100  -0.000441   0.000272   0.000317
   57  BR 6 ZZ    0.000564  -0.000069  -0.000490   0.000324   0.000301
   58  BR 6 XY    0.000129  -0.000146   0.000001   0.000012  -0.000011
   59  BR 6 XZ    0.000103  -0.000073   0.000017  -0.000007  -0.000012
   60  BR 6 YZ   -0.000203   0.000143   0.000012  -0.000022   0.000017
   61  BR 6  S    0.001006  -0.001751   0.001032  -0.000442  -0.001149
   62  BR 6  X    0.000963  -0.000529  -0.000166   0.000359   0.000257
   63  BR 6  Y   -0.001538   0.000588   0.000862  -0.000600  -0.000408
   64  BR 6  Z   -0.000582  -0.000056   0.000414  -0.000259   0.000119
   65  BR 6  S   -0.006754   0.007602  -0.001324  -0.000154   0.002465
   66  BR 6  X    0.000975  -0.001984   0.000821  -0.000580  -0.000812
   67  BR 6  Y   -0.003036   0.004590  -0.000732  -0.000182   0.001632
   68  BR 6  Z   -0.003617   0.002772  -0.000820   0.000204   0.000437
   69  BR 7  S   -0.000055  -0.000031   0.000017   0.000014   0.000004
   70  BR 7  S    0.000052  -0.000116  -0.000176  -0.000097  -0.000147
   71  BR 7  X   -0.000074  -0.000041   0.000010   0.000024   0.000016
   72  BR 7  Y    0.000130   0.000055  -0.000062  -0.000046  -0.000018
   73  BR 7  Z   -0.000067  -0.000001   0.000029   0.000020  -0.000012
   74  BR 7  S    0.000260  -0.000871  -0.001148  -0.000636  -0.000952
   75  BR 7  X    0.000260   0.000145  -0.000035  -0.000085  -0.000055
   76  BR 7  Y   -0.000455  -0.000194   0.000215   0.000160   0.000066
   77  BR 7  Z    0.000231   0.000007  -0.000102  -0.000068   0.000040
   78  BR 7 XX   -0.000643  -0.000070   0.000504   0.000330   0.000293
   79  BR 7 YY   -0.000468   0.000100   0.000441   0.000272   0.000317
   80  BR 7 ZZ   -0.000564  -0.000069   0.000490   0.000324   0.000301
   81  BR 7 XY   -0.000129  -0.000146  -0.000001   0.000012  -0.000011
   82  BR 7 XZ    0.000103   0.000073   0.000017   0.000007   0.000012
   83  BR 7 YZ   -0.000203  -0.000143   0.000012   0.000022  -0.000017
   84  BR 7  S   -0.001006  -0.001751  -0.001032  -0.000442  -0.001149
   85  BR 7  X   -0.000963  -0.000529   0.000166   0.000359   0.000257
   86  BR 7  Y    0.001538   0.000588  -0.000862  -0.000600  -0.000408
   87  BR 7  Z   -0.000582   0.000056   0.000414   0.000259  -0.000119
   88  BR 7  S    0.006754   0.007602   0.001324  -0.000154   0.002465
   89  BR 7  X   -0.000975  -0.001984  -0.000821  -0.000580  -0.000812
   90  BR 7  Y    0.003036   0.004590   0.000732  -0.000182   0.001632
   91  BR 7  Z   -0.003617  -0.002772  -0.000820  -0.000204  -0.000437
   92  H  8  S    0.001723  -0.000393  -0.001273  -0.000856  -0.000445
   93  H  8  S    0.011262   0.012192   0.001053   0.001303  -0.001766
   94  H  9  S   -0.001723  -0.000393   0.001273  -0.000856  -0.000445
   95  H  9  S   -0.011262   0.012192  -0.001053   0.001303  -0.001766
   96  H 10  S   -0.001023  -0.000921   0.000473   0.000650  -0.001183
   97  H 10  S   -0.000207   0.000735   0.008056   0.012573   0.002424
   98  H 11  S    0.001023  -0.000921  -0.000473   0.000650  -0.001183
   99  H 11  S    0.000207   0.000735  -0.008056   0.012573   0.002424
  100  H 12  S   -0.001126  -0.000897   0.001093   0.000114  -0.001497
  101  H 12  S    0.001158  -0.000225   0.012846   0.009817   0.002606
  102  H 13  S    0.001126  -0.000897  -0.001093   0.000114  -0.001497
  103  H 13  S   -0.001158  -0.000225  -0.012846   0.009817   0.002606
  104  H 14  S    0.000000  -0.000600   0.000000  -0.002364   0.000407
  105  H 14  S    0.000000  -0.001735   0.000000  -0.001865   0.016197
  106  H 15  S    0.000000   0.000049   0.000000  -0.001653   0.000313
  107  H 15  S    0.000000   0.003513   0.000000  -0.001805   0.014616

                     16         17         18         19         20
                   -8.5919    -8.5918    -6.3867    -6.3867    -6.3708
                     A''        A'         A''        A'         A'' 
    1  C  1  S   -0.000015   0.000021  -0.000139   0.000089  -0.000016
    2  C  1  S   -0.000278   0.000054  -0.000689   0.000234  -0.000084
    3  C  1  X   -0.000102  -0.000076  -0.000058  -0.000141  -0.000058
    4  C  1  Y    0.000064   0.000082  -0.000039   0.000208  -0.000015
    5  C  1  Z    0.000038   0.000099   0.000096  -0.000021  -0.000031
    6  C  1  S    0.000550  -0.000050   0.001935  -0.000630   0.000480
    7  C  1  X    0.000291   0.000423   0.001012   0.000187   0.000457
    8  C  1  Y    0.001407  -0.000907   0.000280  -0.000704   0.000101
    9  C  1  Z   -0.000611  -0.000223  -0.000604  -0.000545   0.000210
   10  C  2  S    0.000015   0.000021   0.000139   0.000089   0.000016
   11  C  2  S    0.000278   0.000054   0.000689   0.000234   0.000084
   12  C  2  X    0.000102  -0.000076   0.000058  -0.000141   0.000058
   13  C  2  Y   -0.000064   0.000082   0.000039   0.000208   0.000015
   14  C  2  Z    0.000038  -0.000099   0.000096   0.000021  -0.000031
   15  C  2  S   -0.000550  -0.000050  -0.001935  -0.000630  -0.000480
   16  C  2  X   -0.000291   0.000423  -0.001012   0.000187  -0.000457
   17  C  2  Y   -0.001407  -0.000907  -0.000280  -0.000704  -0.000101
   18  C  2  Z   -0.000611   0.000223  -0.000604   0.000545   0.000210
   19  C  3  S    0.000020  -0.000011   0.000049  -0.000043   0.000016
   20  C  3  S    0.000270  -0.000183   0.000309  -0.000268   0.000084
   21  C  3  X    0.000075   0.000027   0.000102   0.000015  -0.000011
   22  C  3  Y   -0.000214   0.000153  -0.000063   0.000049  -0.000068
   23  C  3  Z    0.000014  -0.000088  -0.000030  -0.000044   0.000053
   24  C  3  S   -0.000565   0.000283  -0.001045   0.001119  -0.000090
   25  C  3  X   -0.000047  -0.000401  -0.000475  -0.000367   0.000114
   26  C  3  Y    0.001600  -0.000945   0.001415  -0.000827   0.000842
   27  C  3  Z    0.000061   0.000522   0.000226   0.000213  -0.000312
   28  C  4  S   -0.000020  -0.000011  -0.000049  -0.000043  -0.000016
   29  C  4  S   -0.000270  -0.000183  -0.000309  -0.000268  -0.000084
   30  C  4  X   -0.000075   0.000027  -0.000102   0.000015   0.000011
   31  C  4  Y    0.000214   0.000153   0.000063   0.000049   0.000068
   32  C  4  Z    0.000014   0.000088  -0.000030   0.000044   0.000053
   33  C  4  S    0.000565   0.000283   0.001045   0.001119   0.000090
   34  C  4  X    0.000047  -0.000401   0.000475  -0.000367  -0.000114
   35  C  4  Y   -0.001600  -0.000945  -0.001415  -0.000827  -0.000842
   36  C  4  Z    0.000061  -0.000522   0.000226  -0.000213  -0.000312
   37  C  5  S    0.000000  -0.000024   0.000000  -0.000001   0.000000
   38  C  5  S    0.000000  -0.000215   0.000000   0.000001   0.000000
   39  C  5  X    0.000000   0.000036   0.000000  -0.000020   0.000000
   40  C  5  Y    0.000000  -0.000036   0.000000  -0.000048   0.000000
   41  C  5  Z    0.000087   0.000000   0.000079   0.000000   0.000001
   42  C  5  S    0.000000   0.001410   0.000000   0.000324   0.000000
   43  C  5  X    0.000000   0.000054   0.000000   0.000230   0.000000
   44  C  5  Y    0.000000  -0.000190   0.000000   0.000270   0.000000
   45  C  5  Z   -0.001033   0.000000  -0.000730   0.000000  -0.000572
   46  BR 6  S    0.093113   0.093125  -0.000775  -0.000770  -0.000029
   47  BR 6  S   -0.339544  -0.339705   0.002922   0.002863   0.000079
   48  BR 6  X    0.001183   0.001183   0.141995   0.142010  -0.156936
   49  BR 6  Y   -0.001890  -0.001892  -0.226757  -0.226758  -0.207709
   50  BR 6  Z   -0.001061  -0.001108  -0.151491  -0.151515   0.163817
   51  BR 6  S    0.771779   0.770813  -0.006529  -0.006850  -0.000475
   52  BR 6  X   -0.002828  -0.002828  -0.344672  -0.344716   0.381037
   53  BR 6  Y    0.004502   0.004512   0.550410   0.550425   0.504303
   54  BR 6  Z    0.002497   0.002663   0.367711   0.367789  -0.397732
   55  BR 6 XX   -0.005137  -0.004770  -0.000365  -0.000233  -0.001046
   56  BR 6 YY   -0.004444  -0.004079   0.001099   0.001225   0.002279
   57  BR 6 ZZ   -0.005076  -0.004711  -0.000385  -0.000257  -0.001011
   58  BR 6 XY   -0.000813  -0.000817  -0.001717  -0.001715   0.000175
   59  BR 6 XZ   -0.000550  -0.000551  -0.001064  -0.001062   0.001205
   60  BR 6 YZ    0.000868   0.000867   0.001710   0.001704  -0.000272
   61  BR 6  S    0.034218   0.033172   0.000882   0.000518  -0.000240
   62  BR 6  X   -0.000418  -0.000396  -0.013852  -0.013760   0.014714
   63  BR 6  Y    0.000863   0.000802   0.022253   0.022085   0.019572
   64  BR 6  Z    0.000928   0.000167   0.014929   0.014667  -0.015528
   65  BR 6  S   -0.010557  -0.009092  -0.000795  -0.000513   0.000490
   66  BR 6  X    0.000695   0.000511   0.002563   0.002469  -0.002566
   67  BR 6  Y   -0.001314  -0.001110  -0.004147  -0.004106  -0.003347
   68  BR 6  Z   -0.001505  -0.000213  -0.002899  -0.002609   0.003049
   69  BR 7  S   -0.093113   0.093125   0.000775  -0.000770   0.000029
   70  BR 7  S    0.339544  -0.339705  -0.002922   0.002863  -0.000079
   71  BR 7  X   -0.001183   0.001183  -0.141995   0.142010   0.156936
   72  BR 7  Y    0.001890  -0.001892   0.226757  -0.226758   0.207709
   73  BR 7  Z   -0.001061   0.001108  -0.151491   0.151515   0.163817
   74  BR 7  S   -0.771779   0.770813   0.006529  -0.006850   0.000475
   75  BR 7  X    0.002828  -0.002828   0.344672  -0.344716  -0.381037
   76  BR 7  Y   -0.004502   0.004512  -0.550410   0.550425  -0.504303
   77  BR 7  Z    0.002497  -0.002663   0.367711  -0.367789  -0.397732
   78  BR 7 XX    0.005137  -0.004770   0.000365  -0.000233   0.001046
   79  BR 7 YY    0.004444  -0.004079  -0.001099   0.001225  -0.002279
   80  BR 7 ZZ    0.005076  -0.004711   0.000385  -0.000257   0.001011
   81  BR 7 XY    0.000813  -0.000817   0.001717  -0.001715  -0.000175
   82  BR 7 XZ   -0.000550   0.000551  -0.001064   0.001062   0.001205
   83  BR 7 YZ    0.000868  -0.000867   0.001710  -0.001704  -0.000272
   84  BR 7  S   -0.034218   0.033172  -0.000882   0.000518   0.000240
   85  BR 7  X    0.000418  -0.000396   0.013852  -0.013760  -0.014714
   86  BR 7  Y   -0.000863   0.000802  -0.022253   0.022085  -0.019572
   87  BR 7  Z    0.000928  -0.000167   0.014929  -0.014667  -0.015528
   88  BR 7  S    0.010557  -0.009092   0.000795  -0.000513  -0.000490
   89  BR 7  X   -0.000695   0.000511  -0.002563   0.002469   0.002566
   90  BR 7  Y    0.001314  -0.001110   0.004147  -0.004106   0.003347
   91  BR 7  Z   -0.001505   0.000213  -0.002899   0.002609   0.003049
   92  H  8  S    0.000192  -0.000060   0.000006   0.000104  -0.000027
   93  H  8  S   -0.000425   0.000657  -0.000220   0.000591   0.000286
   94  H  9  S   -0.000192  -0.000060  -0.000006   0.000104   0.000027
   95  H  9  S    0.000425   0.000657   0.000220   0.000591  -0.000286
   96  H 10  S   -0.000018  -0.000098  -0.000010  -0.000135   0.000060
   97  H 10  S   -0.000184  -0.000108  -0.000275  -0.000053  -0.000052
   98  H 11  S    0.000018  -0.000098   0.000010  -0.000135  -0.000060
   99  H 11  S    0.000184  -0.000108   0.000275  -0.000053   0.000052
  100  H 12  S    0.000326  -0.000188   0.000232  -0.000108   0.000154
  101  H 12  S   -0.000441   0.000515   0.000147   0.000167  -0.000425
  102  H 13  S   -0.000326  -0.000188  -0.000232  -0.000108  -0.000154
  103  H 13  S    0.000441   0.000515  -0.000147   0.000167   0.000425
  104  H 14  S    0.000000  -0.000076   0.000000   0.000011   0.000000
  105  H 14  S    0.000000  -0.000111   0.000000  -0.000010   0.000000
  106  H 15  S    0.000000  -0.000086   0.000000  -0.000066   0.000000
  107  H 15  S    0.000000  -0.000034   0.000000  -0.000118   0.000000

                     21         22         23         24         25
                   -6.3708    -6.3707    -6.3707    -2.4816    -2.4800
                     A'         A''        A'         A''        A'  
    1  C  1  S    0.000006   0.000010  -0.000007   0.003392   0.002944
    2  C  1  S    0.000047   0.000045  -0.000089   0.018039   0.015226
    3  C  1  X   -0.000027  -0.000059  -0.000019   0.005906   0.001848
    4  C  1  Y   -0.000049   0.000047  -0.000036  -0.007507  -0.004105
    5  C  1  Z    0.000005   0.000011   0.000051   0.003445   0.003494
    6  C  1  S   -0.000085  -0.000373   0.000068  -0.055824  -0.058913
    7  C  1  X    0.000140   0.000217   0.000108  -0.048050  -0.014495
    8  C  1  Y    0.000171   0.000083   0.000106   0.052280   0.017946
    9  C  1  Z    0.000028   0.000005  -0.000229  -0.020645  -0.027250
   10  C  2  S    0.000006  -0.000010  -0.000007  -0.003392   0.002944
   11  C  2  S    0.000047  -0.000045  -0.000089  -0.018039   0.015226
   12  C  2  X   -0.000027   0.000059  -0.000019  -0.005906   0.001848
   13  C  2  Y   -0.000049  -0.000047  -0.000036   0.007507  -0.004105
   14  C  2  Z   -0.000005   0.000011  -0.000051   0.003445  -0.003494
   15  C  2  S   -0.000085   0.000373   0.000068   0.055824  -0.058913
   16  C  2  X    0.000140  -0.000217   0.000108   0.048050  -0.014495
   17  C  2  Y    0.000171  -0.000083   0.000106  -0.052280   0.017946
   18  C  2  Z   -0.000028   0.000005   0.000229  -0.020645   0.027250
   19  C  3  S   -0.000005   0.000004   0.000001  -0.000393  -0.000752
   20  C  3  S   -0.000020   0.000041   0.000021  -0.002016  -0.003685
   21  C  3  X    0.000015   0.000003   0.000011  -0.002200  -0.000243
   22  C  3  Y    0.000059  -0.000031   0.000010   0.000648   0.000261
   23  C  3  Z   -0.000043  -0.000083   0.000035   0.001019  -0.000794
   24  C  3  S   -0.000302   0.000071  -0.000025   0.004318   0.025977
   25  C  3  X   -0.000078   0.000008  -0.000128   0.022865  -0.003186
   26  C  3  Y   -0.000403   0.000197   0.000093  -0.019978  -0.011878
   27  C  3  Z    0.000322   0.000381  -0.000227  -0.000102   0.000802
   28  C  4  S   -0.000005  -0.000004   0.000001   0.000393  -0.000752
   29  C  4  S   -0.000020  -0.000041   0.000021   0.002016  -0.003685
   30  C  4  X    0.000015  -0.000003   0.000011   0.002200  -0.000243
   31  C  4  Y    0.000059   0.000031   0.000010  -0.000648   0.000261
   32  C  4  Z    0.000043  -0.000083  -0.000035   0.001019   0.000794
   33  C  4  S   -0.000302  -0.000071  -0.000025  -0.004318   0.025977
   34  C  4  X   -0.000078  -0.000008  -0.000128  -0.022865  -0.003186
   35  C  4  Y   -0.000403  -0.000197   0.000093   0.019978  -0.011878
   36  C  4  Z   -0.000322   0.000381   0.000227  -0.000102  -0.000802
   37  C  5  S   -0.000014   0.000000   0.000016   0.000000   0.000614
   38  C  5  S   -0.000069   0.000000   0.000129   0.000000   0.003621
   39  C  5  X    0.000026   0.000000   0.000014   0.000000  -0.002086
   40  C  5  Y   -0.000048   0.000000  -0.000039   0.000000  -0.002047
   41  C  5  Z    0.000000   0.000027   0.000000  -0.000679   0.000000
   42  C  5  S    0.000803   0.000000  -0.000500   0.000000  -0.008470
   43  C  5  X    0.000005   0.000000  -0.000018   0.000000   0.012731
   44  C  5  Y   -0.000034   0.000000   0.000369   0.000000   0.017260
   45  C  5  Z    0.000000  -0.000048   0.000000   0.014136   0.000000
   46  BR 6  S   -0.000033   0.000031   0.000037  -0.000142   0.000188
   47  BR 6  S    0.000153  -0.000062  -0.000164   0.002762  -0.002244
   48  BR 6  X   -0.156945  -0.223174  -0.223175  -0.000563   0.000700
   49  BR 6  Y   -0.207731   0.001671   0.001679   0.000905  -0.001084
   50  BR 6  Z    0.163817  -0.211658  -0.211691   0.000748  -0.000668
   51  BR 6  S   -0.000063   0.000714   0.000144   0.007021  -0.003987
   52  BR 6  X    0.381063   0.541860   0.541871   0.001499  -0.001932
   53  BR 6  Y    0.504367  -0.004059  -0.004077  -0.002345   0.002944
   54  BR 6  Z   -0.397752   0.513884   0.513990  -0.002024   0.001800
   55  BR 6 XX   -0.001183  -0.001594  -0.001398  -0.149098   0.123307
   56  BR 6 YY    0.002139  -0.000101   0.000095   0.231599  -0.248828
   57  BR 6 ZZ   -0.001150   0.001239   0.001437  -0.086043   0.127930
   58  BR 6 XY    0.000176   0.001406   0.001405  -0.401174   0.429426
   59  BR 6 XZ    0.001205  -0.000017  -0.000018  -0.267338   0.260796
   60  BR 6 YZ   -0.000274   0.001317   0.001318   0.457471  -0.428304
   61  BR 6  S    0.000296   0.000464  -0.000263   0.020446  -0.014688
   62  BR 6  X    0.014626   0.020911   0.020796  -0.001900   0.002992
   63  BR 6  Y    0.019447  -0.000123  -0.000156   0.002186  -0.003964
   64  BR 6  Z   -0.015192   0.020093   0.019646   0.003016  -0.002036
   65  BR 6  S   -0.000385  -0.000693   0.000421  -0.056823   0.035945
   66  BR 6  X   -0.002404  -0.003528  -0.003417   0.018985  -0.015259
   67  BR 6  Y   -0.003282  -0.000056   0.000071  -0.032212   0.024161
   68  BR 6  Z    0.002297  -0.003922  -0.002963  -0.024284   0.012711
   69  BR 7  S   -0.000033  -0.000031   0.000037   0.000142   0.000188
   70  BR 7  S    0.000153   0.000062  -0.000164  -0.002762  -0.002244
   71  BR 7  X   -0.156945   0.223174  -0.223175   0.000563   0.000700
   72  BR 7  Y   -0.207731  -0.001671   0.001679  -0.000905  -0.001084
   73  BR 7  Z   -0.163817  -0.211658   0.211691   0.000748   0.000668
   74  BR 7  S   -0.000063  -0.000714   0.000144  -0.007021  -0.003987
   75  BR 7  X    0.381063  -0.541860   0.541871  -0.001499  -0.001932
   76  BR 7  Y    0.504367   0.004059  -0.004077   0.002345   0.002944
   77  BR 7  Z    0.397752   0.513884  -0.513990  -0.002024  -0.001800
   78  BR 7 XX   -0.001183   0.001594  -0.001398   0.149098   0.123307
   79  BR 7 YY    0.002139   0.000101   0.000095  -0.231599  -0.248828
   80  BR 7 ZZ   -0.001150  -0.001239   0.001437   0.086043   0.127930
   81  BR 7 XY    0.000176  -0.001406   0.001405   0.401174   0.429426
   82  BR 7 XZ   -0.001205  -0.000017   0.000018  -0.267338  -0.260796
   83  BR 7 YZ    0.000274   0.001317  -0.001318   0.457471   0.428304
   84  BR 7  S    0.000296  -0.000464  -0.000263  -0.020446  -0.014688
   85  BR 7  X    0.014626  -0.020911   0.020796   0.001900   0.002992
   86  BR 7  Y    0.019447   0.000123  -0.000156  -0.002186  -0.003964
   87  BR 7  Z    0.015192   0.020093  -0.019646   0.003016   0.002036
   88  BR 7  S   -0.000385   0.000693   0.000421   0.056823   0.035945
   89  BR 7  X   -0.002404   0.003528  -0.003417  -0.018985  -0.015259
   90  BR 7  Y   -0.003282   0.000056   0.000071   0.032212   0.024161
   91  BR 7  Z   -0.002297  -0.003922   0.002963  -0.024284  -0.012711
   92  H  8  S    0.000036  -0.000020   0.000049  -0.000014   0.003876
   93  H  8  S   -0.000006   0.000537  -0.000230  -0.007608   0.003870
   94  H  9  S    0.000036   0.000020   0.000049   0.000014   0.003876
   95  H  9  S   -0.000006  -0.000537  -0.000230   0.007608   0.003870
   96  H 10  S   -0.000047  -0.000077   0.000037   0.001719  -0.001740
   97  H 10  S    0.000026  -0.000119  -0.000007   0.006709  -0.000836
   98  H 11  S   -0.000047   0.000077   0.000037  -0.001719  -0.001740
   99  H 11  S    0.000026   0.000119  -0.000007  -0.006709  -0.000836
  100  H 12  S   -0.000122   0.000092  -0.000048  -0.002431  -0.000895
  101  H 12  S    0.000461  -0.000351   0.000334  -0.014784  -0.004409
  102  H 13  S   -0.000122  -0.000092  -0.000048   0.002431  -0.000895
  103  H 13  S    0.000461   0.000351   0.000334   0.014784  -0.004409
  104  H 14  S   -0.000042   0.000000   0.000013   0.000000   0.002018
  105  H 14  S   -0.000084   0.000000  -0.000017   0.000000   0.002311
  106  H 15  S   -0.000029   0.000000   0.000022   0.000000  -0.001649
  107  H 15  S   -0.000102   0.000000  -0.000105   0.000000  -0.008484

                     26         27         28         29         30
                   -2.4746    -2.4745    -2.4740    -2.4739    -2.4613
                     A''        A''        A'         A'         A'' 
    1  C  1  S   -0.000601   0.000861   0.000521   0.000191  -0.000005
    2  C  1  S   -0.003236   0.004707   0.002803   0.001231  -0.000060
    3  C  1  X   -0.006510   0.001033  -0.000531   0.003742  -0.000202
    4  C  1  Y   -0.003377  -0.001499   0.001992   0.001331   0.000182
    5  C  1  Z   -0.000203  -0.004668   0.004438  -0.002346   0.000476
    6  C  1  S    0.019886  -0.034911  -0.021050  -0.000448  -0.000099
    7  C  1  X    0.045506  -0.006948   0.001525  -0.017290   0.000055
    8  C  1  Y    0.030108   0.008965  -0.011745  -0.008194  -0.001725
    9  C  1  Z   -0.004754   0.051549  -0.015613   0.006606  -0.004688
   10  C  2  S    0.000601  -0.000861   0.000521   0.000191   0.000005
   11  C  2  S    0.003236  -0.004707   0.002803   0.001231   0.000060
   12  C  2  X    0.006510  -0.001033  -0.000531   0.003742   0.000202
   13  C  2  Y    0.003377   0.001499   0.001992   0.001331  -0.000182
   14  C  2  Z   -0.000203  -0.004668  -0.004438   0.002346   0.000476
   15  C  2  S   -0.019886   0.034911  -0.021050  -0.000448   0.000099
   16  C  2  X   -0.045506   0.006948   0.001525  -0.017290  -0.000055
   17  C  2  Y   -0.030108  -0.008965  -0.011745  -0.008194   0.001725
   18  C  2  Z   -0.004754   0.051549   0.015613  -0.006606  -0.004688
   19  C  3  S    0.000871   0.000170  -0.000476  -0.000496  -0.000034
   20  C  3  S    0.004390   0.001097  -0.002430  -0.002616  -0.000230
   21  C  3  X    0.000994  -0.001126   0.001290  -0.000548  -0.000014
   22  C  3  Y    0.001591  -0.000123  -0.000994  -0.000505   0.000509
   23  C  3  Z   -0.000691   0.000719  -0.000214   0.001054  -0.000032
   24  C  3  S   -0.036293  -0.007358   0.017782   0.018389   0.000187
   25  C  3  X   -0.000590   0.008891  -0.014015   0.003613  -0.000932
   26  C  3  Y    0.017397   0.003795  -0.004208  -0.002282  -0.003670
   27  C  3  Z    0.012384  -0.011408   0.000072  -0.013602   0.000898
   28  C  4  S   -0.000871  -0.000170  -0.000476  -0.000496   0.000034
   29  C  4  S   -0.004390  -0.001097  -0.002430  -0.002616   0.000230
   30  C  4  X   -0.000994   0.001126   0.001290  -0.000548   0.000014
   31  C  4  Y   -0.001591   0.000123  -0.000994  -0.000505  -0.000509
   32  C  4  Z   -0.000691   0.000719   0.000214  -0.001054  -0.000032
   33  C  4  S    0.036293   0.007358   0.017782   0.018389  -0.000187
   34  C  4  X    0.000590  -0.008891  -0.014015   0.003613   0.000932
   35  C  4  Y   -0.017397  -0.003795  -0.004208  -0.002282   0.003670
   36  C  4  Z    0.012384  -0.011408  -0.000072   0.013602   0.000898
   37  C  5  S    0.000000   0.000000   0.000231   0.000454   0.000000
   38  C  5  S    0.000000   0.000000   0.001060   0.002148   0.000000
   39  C  5  X    0.000000   0.000000  -0.000840   0.000560   0.000000
   40  C  5  Y    0.000000   0.000000   0.000321   0.000772   0.000000
   41  C  5  Z    0.001401  -0.000630   0.000000   0.000000  -0.000130
   42  C  5  S    0.000000   0.000000  -0.008008  -0.019805   0.000000
   43  C  5  X    0.000000   0.000000   0.008901  -0.007366   0.000000
   44  C  5  Y    0.000000   0.000000   0.003084   0.007170   0.000000
   45  C  5  Z    0.000212  -0.001419   0.000000   0.000000   0.002798
   46  BR 6  S   -0.000018   0.000004  -0.000021   0.000005  -0.000002
   47  BR 6  S    0.000076  -0.000005   0.000038  -0.000094   0.000072
   48  BR 6  X   -0.001110   0.000366  -0.000017  -0.001091  -0.000036
   49  BR 6  Y   -0.000570  -0.000639  -0.000649  -0.000501  -0.000011
   50  BR 6  Z    0.000015   0.001072   0.001022  -0.000306   0.000020
   51  BR 6  S    0.000050   0.000146  -0.000322  -0.000419   0.000429
   52  BR 6  X    0.002996  -0.000998   0.000058   0.002904   0.000097
   53  BR 6  Y    0.001497   0.001728   0.001708   0.001366   0.000045
   54  BR 6  Z   -0.000052  -0.002910  -0.002724   0.000818  -0.000117
   55  BR 6 XX    0.476655  -0.130110  -0.009401   0.502274  -0.301773
   56  BR 6 YY   -0.459443  -0.393802  -0.486208  -0.349357  -0.144716
   57  BR 6 ZZ   -0.017497   0.523805   0.495636  -0.152538   0.446092
   58  BR 6 XY   -0.292347   0.274588   0.156104  -0.333613  -0.419801
   59  BR 6 XZ   -0.301004  -0.196535  -0.287225  -0.224650   0.306546
   60  BR 6 YZ   -0.175615   0.296239   0.267152  -0.269943  -0.149820
   61  BR 6  S    0.000193   0.000088  -0.000232  -0.000727   0.000593
   62  BR 6  X   -0.002614   0.000982  -0.000145  -0.001717  -0.000082
   63  BR 6  Y   -0.000825  -0.001449  -0.000824  -0.001345  -0.000253
   64  BR 6  Z    0.000120   0.002865   0.001695  -0.000590   0.001036
   65  BR 6  S    0.000437   0.000967   0.001525   0.000885  -0.001048
   66  BR 6  X    0.007255  -0.002898  -0.000607   0.003719   0.000315
   67  BR 6  Y    0.004076   0.004288   0.003117   0.002509   0.000061
   68  BR 6  Z    0.000555  -0.007415  -0.003209   0.001367  -0.001494
   69  BR 7  S    0.000018  -0.000004  -0.000021   0.000005   0.000002
   70  BR 7  S   -0.000076   0.000005   0.000038  -0.000094  -0.000072
   71  BR 7  X    0.001110  -0.000366  -0.000017  -0.001091   0.000036
   72  BR 7  Y    0.000570   0.000639  -0.000649  -0.000501   0.000011
   73  BR 7  Z    0.000015   0.001072  -0.001022   0.000306   0.000020
   74  BR 7  S   -0.000050  -0.000146  -0.000322  -0.000419  -0.000429
   75  BR 7  X   -0.002996   0.000998   0.000058   0.002904  -0.000097
   76  BR 7  Y   -0.001497  -0.001728   0.001708   0.001366  -0.000045
   77  BR 7  Z   -0.000052  -0.002910   0.002724  -0.000818  -0.000117
   78  BR 7 XX   -0.476655   0.130110  -0.009401   0.502274   0.301773
   79  BR 7 YY    0.459443   0.393802  -0.486208  -0.349357   0.144716
   80  BR 7 ZZ    0.017497  -0.523805   0.495636  -0.152538  -0.446092
   81  BR 7 XY    0.292347  -0.274588   0.156104  -0.333613   0.419801
   82  BR 7 XZ   -0.301004  -0.196535   0.287225   0.224650   0.306546
   83  BR 7 YZ   -0.175615   0.296239  -0.267152   0.269943  -0.149820
   84  BR 7  S   -0.000193  -0.000088  -0.000232  -0.000727  -0.000593
   85  BR 7  X    0.002614  -0.000982  -0.000145  -0.001717   0.000082
   86  BR 7  Y    0.000825   0.001449  -0.000824  -0.001345   0.000253
   87  BR 7  Z    0.000120   0.002865  -0.001695   0.000590   0.001036
   88  BR 7  S   -0.000437  -0.000967   0.001525   0.000885   0.001048
   89  BR 7  X   -0.007255   0.002898  -0.000607   0.003719  -0.000315
   90  BR 7  Y   -0.004076  -0.004288   0.003117   0.002509  -0.000061
   91  BR 7  Z    0.000555  -0.007415   0.003209  -0.001367  -0.001494
   92  H  8  S    0.003816  -0.000179   0.002288  -0.001961   0.000037
   93  H  8  S    0.019522  -0.008881   0.004306  -0.010042   0.001216
   94  H  9  S   -0.003816   0.000179   0.002288  -0.001961  -0.000037
   95  H  9  S   -0.019522   0.008881   0.004306  -0.010042  -0.001216
   96  H 10  S    0.000489   0.002191  -0.001920   0.000246   0.000011
   97  H 10  S   -0.004560   0.003946  -0.003190   0.004494   0.000080
   98  H 11  S   -0.000489  -0.002191  -0.001920   0.000246  -0.000011
   99  H 11  S    0.004560  -0.003946  -0.003190   0.004494  -0.000080
  100  H 12  S    0.001894  -0.000715   0.000695  -0.000879  -0.000522
  101  H 12  S    0.004134  -0.000888   0.003362  -0.003229   0.001355
  102  H 13  S   -0.001894   0.000715   0.000695  -0.000879   0.000522
  103  H 13  S   -0.004134   0.000888   0.003362  -0.003229  -0.001355
  104  H 14  S    0.000000   0.000000   0.001469   0.000207   0.000000
  105  H 14  S    0.000000   0.000000   0.003156  -0.002686   0.000000
  106  H 15  S    0.000000   0.000000  -0.000704   0.001110   0.000000
  107  H 15  S    0.000000   0.000000  -0.001475   0.002661   0.000000

                     31         32         33         34         35
                   -2.4613    -2.4613    -2.4613    -0.8817    -0.7815
                     A'         A''        A'         A'         A'' 
    1  C  1  S   -0.000034   0.000011   0.000033  -0.111749  -0.082720
    2  C  1  S   -0.000196   0.000071   0.000247   0.107120   0.068068
    3  C  1  X   -0.000285   0.000291  -0.000138   0.015606   0.016680
    4  C  1  Y    0.000027  -0.000174  -0.000053   0.032071   0.001379
    5  C  1  Z   -0.000012  -0.000165   0.000045  -0.032001   0.063709
    6  C  1  S    0.001390  -0.000469  -0.001000   0.263918   0.268887
    7  C  1  X    0.001778  -0.002713   0.000809   0.004488   0.028383
    8  C  1  Y    0.001172  -0.000275  -0.000310   0.009099  -0.021431
    9  C  1  Z    0.000601   0.000897  -0.000193   0.003079   0.018789
   10  C  2  S   -0.000034  -0.000011   0.000033  -0.111749   0.082720
   11  C  2  S   -0.000196  -0.000071   0.000247   0.107120  -0.068068
   12  C  2  X   -0.000285  -0.000291  -0.000138   0.015606  -0.016680
   13  C  2  Y    0.000027   0.000174  -0.000053   0.032071  -0.001379
   14  C  2  Z    0.000012  -0.000165  -0.000045   0.032001   0.063709
   15  C  2  S    0.001390   0.000469  -0.001000   0.263918  -0.268887
   16  C  2  X    0.001778   0.002713   0.000809   0.004488  -0.028383
   17  C  2  Y    0.001172   0.000275  -0.000310   0.009099   0.021431
   18  C  2  Z   -0.000601   0.000897   0.000193  -0.003079   0.018789
   19  C  3  S    0.000067  -0.000015   0.000008  -0.091770  -0.070811
   20  C  3  S    0.000461  -0.000141   0.000091   0.092298   0.067373
   21  C  3  X    0.000015  -0.000042  -0.000049  -0.018224  -0.010614
   22  C  3  Y   -0.000618   0.000455   0.000065  -0.019367  -0.030515
   23  C  3  Z    0.000245  -0.000308   0.000150  -0.044605   0.006501
   24  C  3  S   -0.001185  -0.000167  -0.000080   0.181707   0.179839
   25  C  3  X    0.000397   0.000546  -0.000265  -0.000769  -0.009146
   26  C  3  Y    0.003598  -0.003029  -0.000020   0.003443   0.012204
   27  C  3  Z   -0.001104   0.001451  -0.001117  -0.011148  -0.003986
   28  C  4  S    0.000067   0.000015   0.000008  -0.091770   0.070811
   29  C  4  S    0.000461   0.000141   0.000091   0.092298  -0.067373
   30  C  4  X    0.000015   0.000042  -0.000049  -0.018224   0.010614
   31  C  4  Y   -0.000618  -0.000455   0.000065  -0.019367   0.030515
   32  C  4  Z   -0.000245  -0.000308  -0.000150   0.044605   0.006501
   33  C  4  S   -0.001185   0.000167  -0.000080   0.181707  -0.179839
   34  C  4  X    0.000397  -0.000546  -0.000265  -0.000769   0.009146
   35  C  4  Y    0.003598   0.003029  -0.000020   0.003443  -0.012204
   36  C  4  Z    0.001104   0.001451   0.001117   0.011148  -0.003986
   37  C  5  S    0.000110   0.000000   0.000035  -0.085667   0.000000
   38  C  5  S    0.000625   0.000000   0.000214   0.084164   0.000000
   39  C  5  X   -0.000041   0.000000   0.000161   0.000279   0.000000
   40  C  5  Y    0.000107   0.000000  -0.000104  -0.050522   0.000000
   41  C  5  Z    0.000000  -0.000147   0.000000   0.000000   0.040918
   42  C  5  S   -0.004313   0.000000  -0.001132   0.177037   0.000000
   43  C  5  X   -0.000268   0.000000  -0.000867  -0.002744   0.000000
   44  C  5  Y    0.000208   0.000000   0.001150  -0.016125   0.000000
   45  C  5  Z    0.000000   0.003058   0.000000   0.000000  -0.013497
   46  BR 6  S    0.000006   0.000006  -0.000003  -0.007289   0.020546
[...]
                   Y -0.02752047  0.02707927  0.00205579 -0.02945291 -0.00104203
                   Z -0.05487308  0.01269707 -0.03744065 -0.02174445  0.00590255
  2   C            X  0.03345576 -0.00172204 -0.00419285  0.02227563 -0.00223421
                   Y  0.02752044 -0.02707946  0.00205570  0.02945296  0.00104197
                   Z -0.05487320  0.01269655  0.03744057 -0.02174472  0.00590267
  3   C            X -0.03089892 -0.03142916 -0.02364478 -0.00593846  0.02954881
                   Y -0.03252797 -0.05115297 -0.09285507  0.05188864  0.01493809
                   Z  0.01772214  0.02305216  0.03952989  0.01863953  0.04336797
  4   C            X  0.03089912  0.03142958 -0.02364423  0.00593847 -0.02954911
                   Y  0.03252819  0.05115445 -0.09285475 -0.05188769 -0.01493805
                   Z  0.01772199  0.02305245 -0.03952928  0.01864010  0.04336844
  5   C            X -0.00000004 -0.00000024  0.02805642 -0.00000002 -0.00000014
                   Y  0.00000003 -0.00000009  0.04712619 -0.00000045  0.00000053
                   Z  0.04406710 -0.04236500 -0.00000100 -0.12672261  0.01116035
  6   BR           X  0.00023633  0.00002737 -0.00005038  0.00004085 -0.00000562
                   Y -0.00029716 -0.00002115  0.00030187 -0.00019968 -0.00001656
                   Z  0.00015937 -0.00005405 -0.00032595  0.00003819  0.00002684
  7   BR           X -0.00023633 -0.00002737 -0.00005039 -0.00004085  0.00000562
                   Y  0.00029715  0.00002115  0.00030187  0.00019968  0.00001656
                   Z  0.00015937 -0.00005405  0.00032595  0.00003818  0.00002684
  8   H            X  0.13729911 -0.05089512  0.03869650  0.05422035 -0.00182893
                   Y  0.22326628 -0.12472231  0.01761383  0.13050035 -0.00450859
                   Z  0.45688474 -0.15113754  0.08046966  0.21851435 -0.00787958
  9   H            X -0.13729918  0.05089510  0.03869655 -0.05422075  0.00182895
                   Y -0.22326762  0.12472181  0.01761424 -0.13049966  0.00450893
                   Z  0.45688429 -0.15113810 -0.08046901  0.21851580 -0.00787966
 10   H            X  0.04557998  0.00265927  0.07450099 -0.02810004 -0.44694058
                   Y  0.24571641  0.04308315  0.37815915 -0.21819776 -0.00822519
                   Z -0.07111866 -0.00604381 -0.12635963  0.13188621 -0.21802363
 11   H            X -0.04558024 -0.00266042  0.07450134  0.02809943  0.44694524
                   Y -0.24571721 -0.04308843  0.37816069  0.21819372  0.00822531
                   Z -0.07111906 -0.00604583  0.12636084  0.13188485 -0.21802602
 12   H            X  0.00599266  0.07057648  0.07068090 -0.01571775  0.08384024
                   Y  0.09964508  0.41885668  0.35759415 -0.08227219 -0.17794794
                   Z -0.09253283 -0.20594252 -0.15077771 -0.00865725 -0.41576990
 13   H            X -0.00599250 -0.07057764  0.07067994  0.01571698 -0.08384126
                   Y -0.09964514 -0.41886357  0.35758862  0.08226910  0.17794948
                   Z -0.09253299 -0.20594492  0.15077432 -0.00865810 -0.41577444
 14   H            X -0.00000013 -0.00000009 -0.01583823 -0.00000006 -0.00000255
                   Y -0.00000015  0.00000037 -0.04048982 -0.00000057 -0.00000494
                   Z  0.01341558  0.54342342  0.00000639  0.48981339 -0.02935192
 15   H            X  0.00000029 -0.00000005 -0.01498513  0.00000029  0.00000427
                   Y -0.00000024 -0.00000019  0.08782783 -0.00000080 -0.00000377
                   Z -0.26483227 -0.15569191  0.00000022  0.40365491  0.00241069

 TRANS. SAYVETZ    X -0.00000004  0.00000006  0.00019375  0.00000021  0.00000019
                   Y -0.00000051  0.00000112  0.00021030 -0.00000111 -0.00000072
                   Z  0.00000460 -0.00010210 -0.00000058  0.00013520  0.00011260
               TOTAL  0.00000463  0.00010211  0.00028594  0.00013520  0.00011260

   ROT. SAYVETZ    X -0.08247493 -0.07339987 -0.00000391  0.07694994 -0.06540439
                   Y  0.05040084 -0.03114461 -0.00000044 -0.01437507 -0.05188620
                   Z  0.00000057  0.00000036 -0.06026601 -0.00000046 -0.00000130
               TOTAL  0.09665588  0.07973410  0.06026601  0.07828114  0.08348600

                           36          37          38          39          40
       FREQUENCY:      1552.62     1568.25     3053.90     3054.69     3071.08  
        SYMMETRY:         A'          A'          A'          A''         A'  
    REDUCED MASS:      1.07770     1.09952     1.07153     1.07274     1.07323
    IR INTENSITY:      0.24656     0.10747     0.00197     0.78430     0.77205

  1   C            X  0.00035025 -0.00045649  0.00374473 -0.00505190 -0.00375211
                   Y  0.00311741  0.00337212 -0.00041146  0.00009361  0.00089834
                   Z  0.00690967 -0.00757995 -0.00097125  0.00204728  0.00111198
  2   C            X  0.00035023 -0.00045648  0.00374480  0.00505184 -0.00375213
                   Y  0.00311746  0.00337215 -0.00041146 -0.00009360  0.00089834
                   Z -0.00690962  0.00757992  0.00097127  0.00204727 -0.00111199
  3   C            X  0.01680747 -0.02128730 -0.01304328  0.01390109  0.00860738
                   Y  0.00174057 -0.01422139  0.01788715 -0.01980085 -0.00859985
                   Z  0.02697221 -0.04059418  0.04246781 -0.04623192 -0.01995080
  4   C            X  0.01680690 -0.02128729 -0.01304348 -0.01390090  0.00860740
                   Y  0.00174024 -0.01422141  0.01788744  0.01980059 -0.00859987
                   Z -0.02697133  0.04059430 -0.04246848 -0.04623128  0.01995083
  5   C            X  0.01668686  0.00727084 -0.00549512  0.00000007 -0.02949774
                   Y -0.05898463 -0.05281002 -0.02758834  0.00000017 -0.05957825
                   Z  0.00000006 -0.00000002  0.00000001  0.00000250 -0.00000001
  6   BR           X -0.00004707  0.00001456 -0.00001273 -0.00001099  0.00000617
                   Y  0.00003756 -0.00011869  0.00001341  0.00000112 -0.00001776
                   Z  0.00001340 -0.00007783  0.00000854  0.00000547 -0.00000925
  7   BR           X -0.00004707  0.00001456 -0.00001273  0.00001099  0.00000617
                   Y  0.00003756 -0.00011869  0.00001341 -0.00000112 -0.00001776
                   Z -0.00001340  0.00007783 -0.00000854  0.00000547  0.00000925
  8   H            X -0.00212426  0.00493023 -0.04789868  0.06258498  0.04940602
                   Y -0.01668470 -0.00296722 -0.00116299  0.00210979  0.00123266
                   Z -0.00537220  0.00150762  0.01754476 -0.02283105 -0.01779942
  9   H            X -0.00212433  0.00493015 -0.04789955 -0.06258426  0.04940612
                   Y -0.01668488 -0.00296747 -0.00116300 -0.00210978  0.00123271
                   Z  0.00537248 -0.00150731 -0.01754506 -0.02283078  0.01779948
 10   H            X -0.27484002  0.34982197  0.26811661 -0.29616439 -0.12324280
                   Y -0.01447249  0.00737872 -0.22795846  0.25029282  0.10256253
                   Z -0.13491864  0.15824665 -0.49067448  0.54125502  0.22827340
 11   H            X -0.27483135  0.34982281  0.26812092  0.29616037 -0.12324302
                   Y -0.01447222  0.00737877 -0.22796211 -0.25028941  0.10256272
                   Z  0.13491453 -0.15824697  0.49068240  0.54124767 -0.22827373
 12   H            X  0.05915417 -0.06782849 -0.10625479  0.12294803  0.01058202
                   Y -0.08851248  0.13267261  0.01765650 -0.01978415 -0.00254099
                   Z -0.26927280  0.32959986 -0.00639704  0.00886524 -0.00319734
 13   H            X  0.05915259 -0.06782860 -0.10625668 -0.12294635  0.01058196
                   Y -0.08850862  0.13267309  0.01765681  0.01978388 -0.00254096
                   Z  0.26926482 -0.32960074  0.00639720  0.00886513  0.00319739
 14   H            X  0.24186930  0.18325888 -0.18848210  0.00000093 -0.21812256
                   Y  0.46477201  0.36322042  0.07473893 -0.00000036  0.08057133
                   Z -0.00000005  0.00000056 -0.00000002  0.00010586 -0.00000006
 15   H            X -0.40625278 -0.32812355  0.24940653 -0.00000171  0.57929503
                   Y  0.35531641  0.26838596  0.25843334 -0.00000180  0.61250460
                   Z  0.00000005 -0.00000057  0.00000001 -0.00354368  0.00000005

 TRANS. SAYVETZ    X -0.00010113  0.00003824 -0.00000495  0.00000004  0.00002573
                   Y -0.00000181  0.00002578  0.00001242 -0.00000009  0.00001371
                   Z  0.00000014 -0.00000010  0.00000007 -0.00017262 -0.00000005
               TOTAL  0.00010115  0.00004612  0.00001337  0.00017262  0.00002915

   ROT. SAYVETZ    X  0.00000039 -0.00000065  0.00000050  0.01071976 -0.00000024
                   Y -0.00000046  0.00000043 -0.00000000  0.00259434 -0.00000016
                   Z  0.06371561 -0.00775263 -0.00001276 -0.00000017  0.00301990
               TOTAL  0.06371561  0.00775263  0.00001277  0.01102922  0.00301990

                           41          42          43          44          45
       FREQUENCY:      3113.84     3116.40     3136.21     3152.87     3163.20  
        SYMMETRY:         A''         A'          A'          A''         A'  
    REDUCED MASS:      1.08438     1.08887     1.08683     1.08952     1.09193
    IR INTENSITY:      0.01890     0.30191     0.05193     0.00000     0.70903

  1   C            X -0.05211135 -0.00192089 -0.05092945  0.01134501 -0.01680035
                   Y -0.00304325 -0.00038025 -0.00307774  0.00005120 -0.00036775
                   Z  0.01869935  0.00068837  0.01892691 -0.00407026  0.00621085
  2   C            X  0.05211133 -0.00192156 -0.05092944 -0.01134506 -0.01680035
                   Y  0.00304324 -0.00038029 -0.00307774 -0.00005121 -0.00036775
                   Z  0.01869934 -0.00068860 -0.01892691 -0.00407028 -0.00621085
  3   C            X  0.01050081  0.02068620  0.01404845  0.05623825 -0.05085845
                   Y  0.00014437 -0.00206186 -0.00017193 -0.00982949  0.00901790
                   Z  0.00513016  0.00625644  0.00536534  0.00238207 -0.00119921
  4   C            X -0.01050057  0.02068624  0.01404847 -0.05623837 -0.05085834
                   Y -0.00014440 -0.00206182 -0.00017193  0.00982951  0.00901788
                   Z  0.00513008 -0.00625654 -0.00536534  0.00238208  0.00119920
  5   C            X -0.00000048 -0.07488637  0.01537400  0.00000003 -0.03183002
                   Y  0.00000010  0.01456075  0.00124540 -0.00000001  0.00362577
                   Z -0.00015705 -0.00000001  0.00000001 -0.00064129 -0.00000000
  6   BR           X -0.00002248 -0.00001462  0.00004248  0.00005244  0.00006769
                   Y -0.00000389  0.00000992 -0.00002195 -0.00000145 -0.00001210
                   Z -0.00003007  0.00000558  0.00000030  0.00000238 -0.00001204
  7   BR           X  0.00002248 -0.00001462  0.00004248 -0.00005244  0.00006769
                   Y  0.00000389  0.00000992 -0.00002195  0.00000145 -0.00001210
                   Z -0.00003007 -0.00000558 -0.00000030  0.00000238  0.00001204
  8   H            X  0.61932964  0.02461454  0.60022311 -0.13097528  0.19390092
                   Y  0.03085669  0.00150997  0.02722906 -0.00898564  0.01176917
                   Z -0.22146011 -0.00910715 -0.21683715  0.04677177 -0.06942858
  9   H            X -0.61932939  0.02462238  0.60022296  0.13097584  0.19390081
                   Y -0.03085667  0.00151035  0.02722905  0.00898567  0.01176915
                   Z -0.22146002  0.00910994  0.21683709  0.04677197  0.06942854
 10   H            X  0.02139750  0.01749362  0.01543085 -0.04067311  0.04350529
                   Y -0.01721791 -0.00772046 -0.01361316  0.04504707 -0.04482622
                   Z -0.03155244 -0.01902316 -0.02222759  0.10491667 -0.10371204
 11   H            X -0.02139726  0.01749425  0.01543080  0.04067319  0.04350530
                   Y  0.01721780 -0.00772092 -0.01361313 -0.04504716 -0.04482616
                   Z -0.03155215  0.01902420  0.02222749  0.10491688  0.10371196
 12   H            X -0.14603717 -0.27054742 -0.17998028 -0.63173351  0.56381643
                   Y  0.02105937  0.03259962  0.02592451  0.07857126 -0.07142351
                   Z -0.02822150 -0.05127776 -0.03626843 -0.12693366  0.11650694
 13   H            X  0.14603397 -0.27054849 -0.17998045  0.63173491  0.56381514
                   Y -0.02105899  0.03259980  0.02592453 -0.07857143 -0.07142334
                   Z -0.02822090  0.05127789  0.03626847 -0.12693395 -0.11650671
 14   H            X  0.00000478  0.76089278 -0.12335785 -0.00000029  0.29187913
                   Y -0.00000213 -0.35044647  0.05673006  0.00000012 -0.13754322
                   Z -0.00003448  0.00000005  0.00000003 -0.00552670  0.00000002
 15   H            X  0.00000097  0.14313125 -0.05942935  0.00000003  0.08534819
                   Y  0.00000122  0.18094273 -0.06981545  0.00000005  0.09926303
                   Z  0.00169052 -0.00000012 -0.00000019  0.00348027 -0.00000011

 TRANS. SAYVETZ    X -0.00000003  0.00006745 -0.00000342  0.00000007  0.00007585
                   Y  0.00000030  0.00004607  0.00000041  0.00000001  0.00002709
                   Z  0.00007635 -0.00000010 -0.00000012 -0.00000228 -0.00000009
               TOTAL  0.00007635  0.00008168  0.00000344  0.00000228  0.00008055

   ROT. SAYVETZ    X -0.00275891 -0.00000062 -0.00000089 -0.00342846 -0.00000061
                   Y  0.00124800  0.00000007  0.00000023 -0.01479752  0.00000010
                   Z -0.00000006  0.00052573  0.00425694 -0.00000036 -0.02406293
               TOTAL  0.00302805  0.00052573  0.00425694  0.01518950  0.02406293

 REFERENCE ON SAYVETZ CONDITIONS - A. SAYVETZ, J.CHEM.PHYS., 7, 383-389(1939).

 NOTE - THE MODES J,K ARE ORTHONORMALIZED ACCORDING TO
 SUM ON I   M(I) * (X(I,J)*X(I,K) + Y(I,J)*Y(I,K) + Z(I,J)*Z(I,K)) = DELTA(J,K)

  MODE FREQ(CM**-1)  SYMMETRY  RED. MASS  IR INTENS.
     1     139.181    A''      2.456403    0.000449
     2      59.938    A'       4.193620    0.019259
     3      48.284    A''      8.915388    0.008002
     4      23.544    A''     31.042870    0.003624
     5       0.061    A'      15.055665    0.000001
     6       0.052    A''     15.054258    0.000000
     7       0.033    A'      15.060076    0.000000
     8     117.970    A'       8.509991    0.002863
     9     140.646    A'       2.516418    0.012318
    10     241.285    A''      5.502542    0.010112
    11     287.764    A'       3.747796    0.054396
    12     303.284    A''      5.424279    0.042262
    13     470.813    A'       3.283377    0.101481
    14     601.461    A''      2.499528    0.056889
    15     627.507    A'       2.246814    0.209234
    16     776.992    A''      4.224574    0.580954
    17     874.545    A'       2.029246    0.101690
    18     929.875    A''      1.539812    0.065688
    19     970.790    A'       3.678735    0.225004
    20     983.487    A'       2.774297    0.089064
    21     991.195    A''      2.467021    0.014315
    22    1056.406    A'       1.499770    0.046123
    23    1118.341    A''      2.050566    0.031758
    24    1127.693    A'       4.900365    0.044211
    25    1192.304    A''      1.297067    0.202272
    26    1251.833    A''      1.349389    0.001004
    27    1253.214    A'       1.105714    0.591524
    28    1301.325    A'       1.303402    0.047022
    29    1302.543    A''      1.287097    0.269498
    30    1376.718    A'       1.132638    0.011703
    31    1381.768    A''      1.229027    0.067626
    32    1384.917    A''      1.158932    0.036643
    33    1389.445    A'       1.440956    0.107956
    34    1409.585    A''      1.408568    0.006824
    35    1550.141    A''      1.081030    0.185684
    36    1552.621    A'       1.077704    0.246561
    37    1568.253    A'       1.099519    0.107469
    38    3053.904    A'       1.071533    0.001966
    39    3054.687    A''      1.072736    0.784302
    40    3071.077    A'       1.073229    0.772055
    41    3113.843    A''      1.084376    0.018902
    42    3116.401    A'       1.088870    0.301912
    43    3136.212    A'       1.086832    0.051929
    44    3152.867    A''      1.089515    0.000000
    45    3163.198    A'       1.091927    0.709025

     -------------------------------
     THERMOCHEMISTRY AT T=  298.15 K
     -------------------------------

 USING IDEAL GAS, RIGID ROTOR, HARMONIC NORMAL MODE APPROXIMATIONS.
 P=  1.01325E+05 PASCAL.
 ALL FREQUENCIES ARE SCALED BY   1.00000
 THE MOMENTS OF INERTIA ARE (IN AMU*BOHR**2)
           1388.17047          1951.68698          3187.04134
 THE ROTATIONAL SYMMETRY NUMBER IS  1.0
 THE ROTATIONAL CONSTANTS ARE (IN GHZ)
      1.29890     0.92386     0.56576
   1 IMAGINARY FREQUENCY VIBRATION(S) IS(ARE) EXCLUDED
     FROM THE FOLLOWING THERMOCHEMICAL ANALYSIS.
      8 -     45 VIBRATIONAL MODES ARE USED IN THERMOCHEMISTRY.
 THE HARMONIC ZERO POINT ENERGY IS (SCALED BY   1.000)
        0.123925 HARTREE/MOLECULE    27198.454150 CM**-1/MOLECULE 
       77.764361 KCAL/MOL              325.366085 KJ/MOL

               Q               LN Q
 ELEC.     1.00000E+00       0.000000
 TRANS.    1.33452E+08      18.709254
 ROT.      1.05187E+06      13.866079
 VIB.      1.63178E+01       2.792259
 TOT.      2.29060E+15      35.367592

              E         H         G         CV        CP        S
           KJ/MOL    KJ/MOL    KJ/MOL   J/MOL-K   J/MOL-K   J/MOL-K
 ELEC.      0.000     0.000     0.000     0.000     0.000     0.000
 TRANS.     3.718     6.197   -46.379    12.472    20.786   176.342
 ROT.       3.718     3.718   -34.373    12.472    12.472   127.760
 VIB.     335.254   335.254   318.444    73.684    73.684    56.381
 TOTAL    342.691   345.170   237.692    98.627   106.941   360.484
 VIB. THERMAL CORRECTION E(T)-E(0) = H(T)-H(0) =      9888.246 J/MOL

              E         H         G         CV        CP        S
         KCAL/MOL  KCAL/MOL  KCAL/MOL CAL/MOL-K CAL/MOL-K CAL/MOL-K
 ELEC.      0.000     0.000     0.000     0.000     0.000     0.000
 TRANS.     0.889     1.481   -11.085     2.981     4.968    42.147
 ROT.       0.889     0.889    -8.215     2.981     2.981    30.535
 VIB.      80.128    80.128    76.110    17.611    17.611    13.475
 TOTAL     81.905    82.498    56.810    23.572    25.560    86.158
 VIB. THERMAL CORRECTION E(T)-E(0) = H(T)-H(0) =      2363.347 CAL/MOL

     *******************************************************
     * THIS IS NOT A STATIONARY POINT ON THE MOLECULAR PES *
     *     THE VIBRATIONAL ANALYSIS IS NOT VALID !!!       *
     *******************************************************
 ......END OF NORMAL COORDINATE ANALYSIS......
 STEP CPU TIME =     0.00 TOTAL CPU TIME =       1581.7 (     26.4 MIN)
 TOTAL WALL CLOCK TIME=       1586.6 SECONDS, CPU UTILIZATION IS    99.69%
               1120360  WORDS OF DYNAMIC MEMORY USED
 EXECUTION OF GAMESS TERMINATED NORMALLY Sun Oct 30 04:05:11 2022
 DDI: 263640 bytes (0.3 MB / 0 MWords) used by master data server.

 ----------------------------------------
 CPU timing information for all processes
 ========================================
 0: 1578.790 + 2.949 = 1581.740
 ----------------------------------------
 ddikick.x: exited gracefully.
----- accounting info -----
Files used on the master node chemcompute-node-0.novalocal were:
-rw-r--r--. 1 chemcomp chemcomp      920 Oct 30 03:38 /scratch/141167/483207.F05
-rw-rw-r--. 1 chemcomp chemcomp 67174400 Oct 30 04:05 /scratch/141167/483207.F10
-rw-rw-r--. 1 chemcomp chemcomp  7460856 Oct 30 04:04 /scratch/141167/483207.F22
Sun Oct 30 04:05:14 UTC 2022
0.098u 0.042s 26:29.96 0.0%	0+0k 8+208io 0pf+0w
Finishing Up...
Looking for IR data...
Looking for Raman data...
vibramans not found
Looking for thermodynamics data...
Looking for UV-Vis data...
chemcompute.org
{'UTCtimestamp': '2022-10-30T04:05:16.489830', 'cluster': 'jetstream2', 'clusterJobNumber': '141167', 'status': 'COMPLETE', 'nodeList': 'chemcompute-node-0'}
141167
